    4    4    1    1
  0.1332739E+03  0.4560000E-09  0.4890000E-09  0.2390735E-08  0.5000000E-15
  1.000000000000000E-004
  CAR 
 In2Bi2 ML                               
     20    160     30
 
  0.0000000E+00  0.5000000E+00  0.0000000E+00  0.6250000E-02
      1        -12.898957   1.000000
      2        -12.898957   1.000000
      3        -12.898957   1.000000
      4        -12.898957   1.000000
      5        -10.968255   1.000000
      6        -10.968255   1.000000
      7        -10.968254   1.000000
      8        -10.968254   1.000000
      9         -4.020901   1.000000
     10         -4.020901   1.000000
     11         -4.020901   1.000000
     12         -4.020901   1.000000
     13         -2.995510   1.000000
     14         -2.995510   1.000000
     15         -2.995510   1.000000
     16         -2.995510   1.000000
     17         -1.833256   1.000000
     18         -1.833256   1.000000
     19         -1.833256   1.000000
     20         -1.833256   1.000000
     21         -0.707858   0.000000
     22         -0.707858   0.000000
     23         -0.707858   0.000000
     24         -0.707858   0.000000
     25          0.109913   0.000000
     26          0.109914   0.000000
     27          0.109915   0.000000
     28          0.109917   0.000000
     29          0.572277   0.000000
     30          0.572277   0.000000
 
  0.1282051E-01  0.5000000E+00  0.0000000E+00  0.6250000E-02
      1        -12.898492   1.000000
      2        -12.898491   1.000000
      3        -12.897936   1.000000
      4        -12.897936   1.000000
      5        -10.968427   1.000000
      6        -10.968427   1.000000
      7        -10.967875   1.000000
      8        -10.967874   1.000000
      9         -4.030862   1.000000
     10         -4.030862   1.000000
     11         -4.011721   1.000000
     12         -4.011720   1.000000
     13         -3.033995   1.000000
     14         -3.033995   1.000000
     15         -2.986750   1.000000
     16         -2.986750   1.000000
     17         -1.852475   1.000000
     18         -1.852475   1.000000
     19         -1.793618   1.000000
     20         -1.793618   1.000000
     21         -0.764352   0.000000
     22         -0.764352   0.000000
     23         -0.668103   0.000000
     24         -0.668103   0.000000
     25          0.066015   0.000000
     26          0.066019   0.000000
     27          0.171777   0.000000
     28          0.171786   0.000000
     29          0.572290   0.000000
     30          0.583740   0.000000
 
  0.2564103E-01  0.5000000E+00  0.0000000E+00  0.6250000E-02
      1        -12.896544   1.000000
      2        -12.896544   1.000000
      3        -12.895431   1.000000
      4        -12.895431   1.000000
      5        -10.968394   1.000000
      6        -10.968394   1.000000
      7        -10.967287   1.000000
      8        -10.967286   1.000000
      9         -4.041718   1.000000
     10         -4.041718   1.000000
     11         -4.003285   1.000000
     12         -4.003285   1.000000
     13         -3.096800   1.000000
     14         -3.096800   1.000000
     15         -3.009271   1.000000
     16         -3.009271   1.000000
     17         -1.848565   1.000000
     18         -1.848565   1.000000
     19         -1.742829   1.000000
     20         -1.742829   1.000000
     21         -0.824273   0.000000
     22         -0.824273   0.000000
     23         -0.654880   0.000000
     24         -0.654880   0.000000
     25          0.050665   0.000000
     26          0.050702   0.000000
     27          0.238108   0.000000
     28          0.238193   0.000000
     29          0.590307   0.000000
     30          0.598745   0.000000
 
  0.3846154E-01  0.5000000E+00  0.0000000E+00  0.6250000E-02
      1        -12.893120   1.000000
      2        -12.893120   1.000000
      3        -12.891448   1.000000
      4        -12.891448   1.000000
      5        -10.968168   1.000000
      6        -10.968168   1.000000
      7        -10.966504   1.000000
      8        -10.966504   1.000000
      9         -4.053693   1.000000
     10         -4.053693   1.000000
     11         -3.995765   1.000000
     12         -3.995765   1.000000
     13         -3.177194   1.000000
     14         -3.177194   1.000000
     15         -3.059575   1.000000
     16         -3.059575   1.000000
     17         -1.825872   1.000000
     18         -1.825872   1.000000
     19         -1.694957   1.000000
     20         -1.694957   1.000000
     21         -0.872973   0.000000
     22         -0.872973   0.000000
     23         -0.668870   0.000000
     24         -0.668870   0.000000
     25          0.065388   0.000000
     26          0.065389   0.000000
     27          0.297375   0.000000
     28          0.297387   0.000000
     29          0.629706   0.000000
     30          0.629957   0.000000
 
  0.5128205E-01  0.5000000E+00  0.0000000E+00  0.6250000E-02
      1        -12.888233   1.000000
      2        -12.888233   1.000000
      3        -12.886001   1.000000
      4        -12.886001   1.000000
      5        -10.967765   1.000000
      6        -10.967765   1.000000
      7        -10.965546   1.000000
      8        -10.965546   1.000000
      9         -4.067122   1.000000
     10         -4.067122   1.000000
     11         -3.989434   1.000000
     12         -3.989434   1.000000
     13         -3.269241   1.000000
     14         -3.269241   1.000000
     15         -3.131062   1.000000
     16         -3.131062   1.000000
     17         -1.794064   1.000000
     18         -1.794064   1.000000
     19         -1.666250   1.000000
     20         -1.666250   1.000000
     21         -0.895085   0.000000
     22         -0.895085   0.000000
     23         -0.699800   0.000000
     24         -0.699800   0.000000
     25          0.101582   0.000000
     26          0.101583   0.000000
     27          0.346468   0.000000
     28          0.346471   0.000000
     29          0.685838   0.000000
     30          0.687377   0.000000
 
  0.6410256E-01  0.5000000E+00  0.0000000E+00  0.6250000E-02
      1        -12.881888   1.000000
      2        -12.881888   1.000000
      3        -12.879093   1.000000
      4        -12.879093   1.000000
      5        -10.967195   1.000000
      6        -10.967194   1.000000
      7        -10.964419   1.000000
      8        -10.964419   1.000000
      9         -4.082436   1.000000
     10         -4.082435   1.000000
     11         -3.984852   1.000000
     12         -3.984852   1.000000
     13         -3.368000   1.000000
     14         -3.368000   1.000000
     15         -3.216639   1.000000
     16         -3.216639   1.000000
     17         -1.766677   1.000000
     18         -1.766677   1.000000
     19         -1.667440   1.000000
     20         -1.667440   1.000000
     21         -0.880333   0.000000
     22         -0.880333   0.000000
     23         -0.731512   0.000000
     24         -0.731512   0.000000
     25          0.147116   0.000000
     26          0.147116   0.000000
     27          0.390769   0.000000
     28          0.390775   0.000000
     29          0.753101   0.000000
     30          0.754294   0.000000
 
  0.7692308E-01  0.5000000E+00  0.0000000E+00  0.6250000E-02
      1        -12.874110   1.000000
      2        -12.874110   1.000000
      3        -12.870751   1.000000
      4        -12.870750   1.000000
      5        -10.966492   1.000000
      6        -10.966491   1.000000
      7        -10.963159   1.000000
      8        -10.963159   1.000000
      9         -4.100317   1.000000
     10         -4.100317   1.000000
     11         -3.983183   1.000000
     12         -3.983183   1.000000
     13         -3.469343   1.000000
     14         -3.469343   1.000000
     15         -3.310351   1.000000
     16         -3.310351   1.000000
     17         -1.766585   1.000000
     18         -1.766585   1.000000
     19         -1.688162   1.000000
     20         -1.688162   1.000000
     21         -0.838226   0.000000
     22         -0.838226   0.000000
     23         -0.741095   0.000000
     24         -0.741095   0.000000
     25          0.192307   0.000000
     26          0.192307   0.000000
     27          0.438121   0.000000
     28          0.438126   0.000000
     29          0.829037   0.000000
     30          0.830230   0.000000
 
  0.8974359E-01  0.5000000E+00  0.0000000E+00  0.6250000E-02
      1        -12.864928   1.000000
      2        -12.864928   1.000000
      3        -12.860999   1.000000
      4        -12.860999   1.000000
      5        -10.965681   1.000000
      6        -10.965681   1.000000
      7        -10.961786   1.000000
      8        -10.961786   1.000000
      9         -4.121638   1.000000
     10         -4.121638   1.000000
     11         -3.986596   1.000000
     12         -3.986596   1.000000
     13         -3.568944   1.000000
     14         -3.568944   1.000000
     15         -3.407390   1.000000
     16         -3.407389   1.000000
     17         -1.817320   1.000000
     18         -1.817320   1.000000
     19         -1.704610   1.000000
     20         -1.704610   1.000000
     21         -0.808105   0.000000
     22         -0.808105   0.000000
     23         -0.689634   0.000000
     24         -0.689634   0.000000
     25          0.232486   0.000000
     26          0.232486   0.000000
     27          0.493629   0.000000
     28          0.493632   0.000000
     29          0.914241   0.000000
     30          0.914620   0.000000
 
  0.1025641E+00  0.5000000E+00  0.0000000E+00  0.6250000E-02
      1        -12.854378   1.000000
      2        -12.854378   1.000000
      3        -12.849872   1.000000
      4        -12.849872   1.000000
      5        -10.964816   1.000000
      6        -10.964816   1.000000
      7        -10.960358   1.000000
      8        -10.960358   1.000000
      9         -4.147619   1.000000
     10         -4.147619   1.000000
     11         -3.999452   1.000000
     12         -3.999451   1.000000
     13         -3.661183   1.000000
     14         -3.661183   1.000000
     15         -3.503861   1.000000
     16         -3.503861   1.000000
     17         -1.900094   1.000000
     18         -1.900094   1.000000
     19         -1.729307   1.000000
     20         -1.729307   1.000000
     21         -0.785426   0.000000
     22         -0.785426   0.000000
     23         -0.589261   0.000000
     24         -0.589261   0.000000
     25          0.267727   0.000000
     26          0.267728   0.000000
     27          0.558653   0.000000
     28          0.558654   0.000000
     29          1.005129   0.000000
     30          1.005483   0.000000
 
  0.1153846E+00  0.5000000E+00  0.0000000E+00  0.6250000E-02
      1        -12.842479   1.000000
      2        -12.842479   1.000000
      3        -12.837393   1.000000
      4        -12.837392   1.000000
      5        -10.963923   1.000000
      6        -10.963923   1.000000
      7        -10.958898   1.000000
      8        -10.958897   1.000000
      9         -4.179751   1.000000
     10         -4.179751   1.000000
     11         -4.029068   1.000000
     12         -4.029068   1.000000
     13         -3.737973   1.000000
     14         -3.737973   1.000000
     15         -3.596084   1.000000
     16         -3.596084   1.000000
     17         -1.996711   1.000000
     18         -1.996711   1.000000
     19         -1.771414   1.000000
     20         -1.771414   1.000000
     21         -0.749639   0.000000
     22         -0.749639   0.000000
     23         -0.471145   0.000000
     24         -0.471145   0.000000
     25          0.301063   0.000000
     26          0.301064   0.000000
     27          0.632612   0.000000
     28          0.632649   0.000000
     29          1.101925   0.000000
     30          1.109464   0.000000
 
  0.1282051E+00  0.5000000E+00  0.0000000E+00  0.6250000E-02
      1        -12.829276   1.000000
      2        -12.829275   1.000000
      3        -12.823604   1.000000
      4        -12.823604   1.000000
      5        -10.963039   1.000000
      6        -10.963039   1.000000
      7        -10.957444   1.000000
      8        -10.957444   1.000000
      9         -4.219753   1.000000
     10         -4.219753   1.000000
     11         -4.082539   1.000000
     12         -4.082539   1.000000
     13         -3.792532   1.000000
     14         -3.792531   1.000000
     15         -3.680033   1.000000
     16         -3.680033   1.000000
     17         -2.099708   1.000000
     18         -2.099708   1.000000
     19         -1.828722   1.000000
     20         -1.828722   1.000000
     21         -0.700732   0.000000
     22         -0.700732   0.000000
     23         -0.347265   0.000000
     24         -0.347265   0.000000
     25          0.336459   0.000000
     26          0.336460   0.000000
     27          0.714625   0.000000
     28          0.714654   0.000000
     29          1.200270   0.000000
     30          1.220564   0.000000
 
  0.1410256E+00  0.5000000E+00  0.0000000E+00  0.6250000E-02
      1        -12.814802   1.000000
      2        -12.814802   1.000000
      3        -12.808539   1.000000
      4        -12.808539   1.000000
      5        -10.962227   1.000000
      6        -10.962227   1.000000
      7        -10.956056   1.000000
      8        -10.956056   1.000000
      9         -4.269307   1.000000
     10         -4.269306   1.000000
     11         -4.158023   1.000000
     12         -4.158023   1.000000
     13         -3.830028   1.000000
     14         -3.830028   1.000000
     15         -3.749519   1.000000
     16         -3.749519   1.000000
     17         -2.205296   1.000000
     18         -2.205295   1.000000
     19         -1.896373   1.000000
     20         -1.896373   1.000000
     21         -0.643341   0.000000
     22         -0.643341   0.000000
     23         -0.225059   0.000000
     24         -0.225059   0.000000
     25          0.378478   0.000000
     26          0.378478   0.000000
     27          0.804139   0.000000
     28          0.804140   0.000000
     29          1.299222   0.000000
     30          1.299842   0.000000
 
  0.1538462E+00  0.5000000E+00  0.0000000E+00  0.6250000E-02
      1        -12.799112   1.000000
      2        -12.799112   1.000000
      3        -12.792249   1.000000
      4        -12.792249   1.000000
      5        -10.961522   1.000000
      6        -10.961522   1.000000
      7        -10.954772   1.000000
      8        -10.954772   1.000000
      9         -4.329454   1.000000
     10         -4.329454   1.000000
     11         -4.246273   1.000000
     12         -4.246273   1.000000
     13         -3.868941   1.000000
     14         -3.868941   1.000000
     15         -3.793479   1.000000
     16         -3.793479   1.000000
     17         -2.311044   1.000000
     18         -2.311044   1.000000
     19         -1.969908   1.000000
     20         -1.969908   1.000000
     21         -0.581839   0.000000
     22         -0.581839   0.000000
     23         -0.111325   0.000000
     24         -0.111325   0.000000
     25          0.432376   0.000000
     26          0.432376   0.000000
     27          0.900830   0.000000
     28          0.900831   0.000000
     29          1.396330   0.000000
     30          1.396657   0.000000
 
  0.1666667E+00  0.5000000E+00  0.0000000E+00  0.6250000E-02
      1        -12.782258   1.000000
      2        -12.782258   1.000000
      3        -12.774788   1.000000
      4        -12.774788   1.000000
      5        -10.960991   1.000000
      6        -10.960991   1.000000
      7        -10.953656   1.000000
      8        -10.953656   1.000000
      9         -4.400148   1.000000
     10         -4.400148   1.000000
     11         -4.339213   1.000000
     12         -4.339213   1.000000
     13         -3.916611   1.000000
     14         -3.916611   1.000000
     15         -3.812326   1.000000
     16         -3.812326   1.000000
     17         -2.415253   1.000000
     18         -2.415253   1.000000
     19         -2.045865   1.000000
     20         -2.045865   1.000000
     21         -0.519450   0.000000
     22         -0.519450   0.000000
     23         -0.012642   0.000000
     24         -0.012642   0.000000
     25          0.503670   0.000000
     26          0.503670   0.000000
     27          1.004261   0.000000
     28          1.004271   0.000000
     29          1.489638   0.000000
     30          1.490812   0.000000
 
  0.1794872E+00  0.5000000E+00  0.0000000E+00  0.6250000E-02
      1        -12.764300   1.000000
      2        -12.764299   1.000000
      3        -12.756213   1.000000
      4        -12.756213   1.000000
      5        -10.960670   1.000000
      6        -10.960670   1.000000
      7        -10.952748   1.000000
      8        -10.952748   1.000000
      9         -4.480194   1.000000
     10         -4.480194   1.000000
     11         -4.431955   1.000000
     12         -4.431955   1.000000
     13         -3.964263   1.000000
     14         -3.964263   1.000000
     15         -3.820721   1.000000
     16         -3.820721   1.000000
     17         -2.516515   1.000000
     18         -2.516515   1.000000
     19         -2.121714   1.000000
     20         -2.121714   1.000000
     21         -0.458277   0.000000
     22         -0.458277   0.000000
     23          0.066792   0.000000
     24          0.066792   0.000000
     25          0.595597   0.000000
     26          0.595597   0.000000
     27          1.113929   0.000000
     28          1.113932   0.000000
     29          1.578341   0.000000
     30          1.579842   0.000000
 
  0.1923077E+00  0.5000000E+00  0.0000000E+00  0.6250000E-02
      1        -12.745310   1.000000
      2        -12.745310   1.000000
      3        -12.736601   1.000000
      4        -12.736601   1.000000
      5        -10.960627   1.000000
      6        -10.960627   1.000000
      7        -10.952113   1.000000
      8        -10.952112   1.000000
      9         -4.567053   1.000000
     10         -4.567053   1.000000
     11         -4.522394   1.000000
     12         -4.522394   1.000000
     13         -4.008977   1.000000
     14         -4.008977   1.000000
     15         -3.826481   1.000000
     16         -3.826481   1.000000
     17         -2.613604   1.000000
     18         -2.613604   1.000000
     19         -2.195623   1.000000
     20         -2.195623   1.000000
     21         -0.399577   0.000000
     22         -0.399577   0.000000
     23          0.127521   0.000000
     24          0.127521   0.000000
     25          0.706803   0.000000
     26          0.706804   0.000000
     27          1.229002   0.000000
     28          1.229004   0.000000
     29          1.657966   0.000000
     30          1.658188   0.000000
 
  0.2051282E+00  0.5000000E+00  0.0000000E+00  0.6250000E-02
      1        -12.725376   1.000000
      2        -12.725376   1.000000
      3        -12.716034   1.000000
      4        -12.716034   1.000000
      5        -10.960922   1.000000
      6        -10.960922   1.000000
      7        -10.951807   1.000000
      8        -10.951807   1.000000
      9         -4.657112   1.000000
     10         -4.657112   1.000000
     11         -4.610561   1.000000
     12         -4.610560   1.000000
     13         -4.051418   1.000000
     14         -4.051417   1.000000
     15         -3.832911   1.000000
     16         -3.832911   1.000000
     17         -2.705318   1.000000
     18         -2.705318   1.000000
     19         -2.266277   1.000000
     20         -2.266277   1.000000
     21         -0.344088   0.000000
     22         -0.344088   0.000000
     23          0.173551   0.000000
     24          0.173551   0.000000
     25          0.832289   0.000000
     26          0.832289   0.000000
     27          1.348385   0.000000
     28          1.348424   0.000000
     29          1.730741   0.000000
     30          1.734224   0.000000
 
  0.2179487E+00  0.5000000E+00  0.0000000E+00  0.6250000E-02
      1        -12.704592   1.000000
      2        -12.704592   1.000000
      3        -12.694602   1.000000
      4        -12.694601   1.000000
      5        -10.961616   1.000000
      6        -10.961616   1.000000
      7        -10.951890   1.000000
      8        -10.951890   1.000000
      9         -4.747296   1.000000
     10         -4.747296   1.000000
     11         -4.696863   1.000000
     12         -4.696863   1.000000
     13         -4.092933   1.000000
     14         -4.092933   1.000000
     15         -3.842011   1.000000
     16         -3.842011   1.000000
     17         -2.790462   1.000000
     18         -2.790462   1.000000
     19         -2.332735   1.000000
     20         -2.332735   1.000000
     21         -0.292112   0.000000
     22         -0.292112   0.000000
     23          0.209463   0.000000
     24          0.209463   0.000000
     25          0.966624   0.000000
     26          0.966625   0.000000
     27          1.470711   0.000000
     28          1.470889   0.000000
     29          1.794309   0.000000
     30          1.794554   0.000000
 
  0.2307692E+00  0.5000000E+00  0.0000000E+00  0.6250000E-02
      1        -12.683010   1.000000
      2        -12.683010   1.000000
      3        -12.672367   1.000000
      4        -12.672367   1.000000
      5        -10.962724   1.000000
      6        -10.962723   1.000000
      7        -10.952384   1.000000
      8        -10.952383   1.000000
      9         -4.835660   1.000000
     10         -4.835660   1.000000
     11         -4.781087   1.000000
     12         -4.781087   1.000000
     13         -4.134415   1.000000
     14         -4.134415   1.000000
     15         -3.855096   1.000000
     16         -3.855096   1.000000
     17         -2.867767   1.000000
     18         -2.867767   1.000000
     19         -2.394273   1.000000
     20         -2.394273   1.000000
     21         -0.243553   0.000000
     22         -0.243553   0.000000
     23          0.238786   0.000000
     24          0.238786   0.000000
     25          1.105599   0.000000
     26          1.105603   0.000000
     27          1.594293   0.000000
     28          1.595701   0.000000
     29          1.848539   0.000000
     30          1.852063   0.000000
 
  0.2435897E+00  0.5000000E+00  0.0000000E+00  0.6250000E-02
      1        -12.660756   1.000000
      2        -12.660756   1.000000
      3        -12.649446   1.000000
      4        -12.649446   1.000000
      5        -10.964308   1.000000
      6        -10.964308   1.000000
      7        -10.953346   1.000000
      8        -10.953346   1.000000
      9         -4.921231   1.000000
     10         -4.921231   1.000000
     11         -4.862825   1.000000
     12         -4.862825   1.000000
     13         -4.176751   1.000000
     14         -4.176751   1.000000
     15         -3.873474   1.000000
     16         -3.873473   1.000000
     17         -2.936170   1.000000
     18         -2.936170   1.000000
     19         -2.450512   1.000000
     20         -2.450511   1.000000
     21         -0.198423   0.000000
     22         -0.198423   0.000000
     23          0.263648   0.000000
     24          0.263648   0.000000
     25          1.246010   0.000000
     26          1.246021   0.000000
     27          1.715115   0.000000
     28          1.715573   0.000000
     29          1.894886   0.000000
     30          1.896864   0.000000
 
  0.2564103E+00  0.5000000E+00  0.0000000E+00  0.6250000E-02
      1        -12.637923   1.000000
      2        -12.637923   1.000000
      3        -12.625938   1.000000
      4        -12.625938   1.000000
      5        -10.966393   1.000000
      6        -10.966392   1.000000
      7        -10.954802   1.000000
      8        -10.954802   1.000000
      9         -5.003393   1.000000
     10         -5.003392   1.000000
     11         -4.941574   1.000000
     12         -4.941574   1.000000
     13         -4.220317   1.000000
     14         -4.220317   1.000000
     15         -3.897993   1.000000
     16         -3.897993   1.000000
     17         -2.994718   1.000000
     18         -2.994718   1.000000
     19         -2.501186   1.000000
     20         -2.501186   1.000000
     21         -0.156530   0.000000
     22         -0.156530   0.000000
     23          0.285403   0.000000
     24          0.285403   0.000000
     25          1.385535   0.000000
     26          1.385578   0.000000
     27          1.822978   0.000000
     28          1.826546   0.000000
     29          1.946003   0.000000
     30          1.954432   0.000000
 
  0.2692308E+00  0.5000000E+00  0.0000000E+00  0.6250000E-02
      1        -12.614638   1.000000
      2        -12.614638   1.000000
      3        -12.601966   1.000000
      4        -12.601966   1.000000
      5        -10.969012   1.000000
      6        -10.969012   1.000000
      7        -10.956785   1.000000
      8        -10.956785   1.000000
      9         -5.081776   1.000000
     10         -5.081776   1.000000
     11         -5.016926   1.000000
     12         -5.016926   1.000000
     13         -4.265307   1.000000
     14         -4.265307   1.000000
     15         -3.929107   1.000000
     16         -3.929107   1.000000
     17         -3.042962   1.000000
     18         -3.042962   1.000000
     19         -2.546267   1.000000
     20         -2.546267   1.000000
     21         -0.117704   0.000000
     22         -0.117704   0.000000
     23          0.304806   0.000000
     24          0.304806   0.000000
     25          1.522124   0.000000
     26          1.522206   0.000000
     27          1.891286   0.000000
     28          1.891509   0.000000
     29          2.028757   0.000000
     30          2.030247   0.000000
 
  0.2820513E+00  0.5000000E+00  0.0000000E+00  0.6250000E-02
      1        -12.591048   1.000000
      2        -12.591048   1.000000
      3        -12.577678   1.000000
      4        -12.577678   1.000000
      5        -10.972182   1.000000
      6        -10.972182   1.000000
      7        -10.959311   1.000000
      8        -10.959310   1.000000
      9         -5.156116   1.000000
     10         -5.156116   1.000000
     11         -5.088529   1.000000
     12         -5.088529   1.000000
     13         -4.311716   1.000000
     14         -4.311716   1.000000
     15         -3.966716   1.000000
     16         -3.966716   1.000000
     17         -3.080988   1.000000
     18         -3.080988   1.000000
     19         -2.585881   1.000000
     20         -2.585881   1.000000
     21         -0.081850   0.000000
     22         -0.081850   0.000000
     23          0.322269   0.000000
     24          0.322269   0.000000
     25          1.653564   0.000000
     26          1.654035   0.000000
     27          1.921810   0.000000
     28          1.924591   0.000000
     29          2.137816   0.000000
     30          2.233468   0.000000
 
  0.2948718E+00  0.5000000E+00  0.0000000E+00  0.6250000E-02
      1        -12.567276   1.000000
      2        -12.567276   1.000000
      3        -12.553197   1.000000
      4        -12.553197   1.000000
      5        -10.975900   1.000000
      6        -10.975900   1.000000
      7        -10.962377   1.000000
      8        -10.962377   1.000000
      9         -5.226215   1.000000
     10         -5.226215   1.000000
     11         -5.156116   1.000000
     12         -5.156116   1.000000
     13         -4.359303   1.000000
     14         -4.359303   1.000000
     15         -4.010105   1.000000
     16         -4.010105   1.000000
     17         -3.109411   1.000000
     18         -3.109411   1.000000
     19         -2.620249   1.000000
     20         -2.620249   1.000000
     21         -0.048786   0.000000
     22         -0.048786   0.000000
     23          0.338058   0.000000
     24          0.338058   0.000000
     25          1.775915   0.000000
     26          1.776069   0.000000
     27          1.937388   0.000000
     28          1.937555   0.000000
     29          2.246484   0.000000
     30          2.257013   0.000000
 
  0.3076923E+00  0.5000000E+00  0.0000000E+00  0.6250000E-02
      1        -12.543463   1.000000
      2        -12.543463   1.000000
      3        -12.528672   1.000000
      4        -12.528672   1.000000
      5        -10.980143   1.000000
      6        -10.980143   1.000000
      7        -10.965963   1.000000
      8        -10.965963   1.000000
      9         -5.291906   1.000000
     10         -5.291906   1.000000
     11         -5.219450   1.000000
     12         -5.219450   1.000000
     13         -4.407644   1.000000
     14         -4.407644   1.000000
     15         -4.058053   1.000000
     16         -4.058053   1.000000
     17         -3.129296   1.000000
     18         -3.129296   1.000000
     19         -2.649680   1.000000
     20         -2.649680   1.000000
     21         -0.018327   0.000000
     22         -0.018327   0.000000
     23          0.352335   0.000000
     24          0.352335   0.000000
     25          1.875750   0.000000
     26          1.875987   0.000000
     27          1.957855   0.000000
     28          1.958295   0.000000
     29          2.277525   0.000000
     30          2.279668   0.000000
 
  0.3205128E+00  0.5000000E+00  0.0000000E+00  0.6250000E-02
      1        -12.519791   1.000000
      2        -12.519791   1.000000
      3        -12.504279   1.000000
      4        -12.504279   1.000000
      5        -10.984896   1.000000
      6        -10.984896   1.000000
      7        -10.970056   1.000000
      8        -10.970056   1.000000
      9         -5.353123   1.000000
     10         -5.353123   1.000000
     11         -5.278411   1.000000