 vasp.6.4.3 19Mar24 (build May 24 2024 16:49:02) complex                        
  
 executed on             LinuxIFC date 2024.05.29  16:55:22
 running   48 mpi-ranks, on    1 nodes
 distrk:  each k-point on   48 cores,    1 groups
 distr:  one band on NCORE=   1 cores,   48 groups


--------------------------------------------------------------------------------------------------------


 INCAR:
   SYSTEM = Hf  Br  Hf  Br
   ISTART = 0
   ICHARG = 11
   ENCUT = 286
   ALGO = Normal
   NELM = 80
   EDIFF = 1E-06
   SIGMA = 0.01
   ISMEAR = 0
   LORBIT = 11
   LREAL = .False.
   PREC = High
   ISYM = 2
   NELMIN = 6
   LSORBIT = .True.
   LWAVE = .False.
   LCHARG = .False.
   LNONCOLLINEAR = .True.
   MAGMOM = 12*0
   IBRION = -1
   NSW = 0

 POTCAR:    PAW_PBE Hf 20Jan2003                  
 POTCAR:    PAW_PBE Br 06Sep2000                  
 -----------------------------------------------------------------------------
|                                                                             |
|           W    W    AA    RRRRR   N    N  II  N    N   GGGG   !!!           |
|           W    W   A  A   R    R  NN   N  II  NN   N  G    G  !!!           |
|           W    W  A    A  R    R  N N  N  II  N N  N  G       !!!           |
|           W WW W  AAAAAA  RRRRR   N  N N  II  N  N N  G  GGG   !            |
|           WW  WW  A    A  R   R   N   NN  II  N   NN  G    G                |
|           W    W  A    A  R    R  N    N  II  N    N   GGGG   !!!           |
|                                                                             |
|     For optimal performance we recommend to set                             |
|       NCORE = 2 up to number-of-cores-per-socket                            |
|     NCORE specifies how many cores store one orbital (NPAR=cpu/NCORE).      |
|     This setting can greatly improve the performance of VASP for DFT.       |
|     The default, NCORE=1 might be grossly inefficient on modern             |
|     multi-core architectures or massively parallel machines. Do your        |
|     own testing! More info at https://www.vasp.at/wiki/index.php/NCORE      |
|     Unfortunately you need to use the default for GW and RPA                |
|     calculations (for HF NCORE is supported but not extensively tested      |
|     yet).                                                                   |
|                                                                             |
 -----------------------------------------------------------------------------

 POTCAR:    PAW_PBE Hf 20Jan2003                  
   SHA256 =  0bb2207f9a10894133f750b65504b92b8afef976ae770762e0497daaaad8168a Hf/POTCAR             
   COPYR  = (c) Copyright 20Jan2003 Georg Kresse                                                    
   COPYR  = This file is part of the software VASP. Any use, copying, and all other rights are regul
   COPYR  = If you do not have a valid VASP license, you may not use, copy or distribute this file. 
   VRHFIN =Hf: 6s5d                                                                                 
   LEXCH  = PE                                                                                      
   EATOM  =    75.9011 eV,    5.5786 Ry                                                             
                                                                                                    
   TITEL  = PAW_PBE Hf 20Jan2003                                                                    
   LULTRA =        F    use ultrasoft PP ?                                                          
   IUNSCR =        1    unscreen: 0-lin 1-nonlin 2-no                                               
   RPACOR =    2.500    partial core radius                                                         
   POMASS =  178.490; ZVAL   =    4.000    mass and valenz                                          
   RCORE  =    3.000    outmost cutoff radius                                                       
   RWIGS  =    3.050; RWIGS  =    1.614    wigner-seitz radius (au A)                               
   ENMAX  =  220.334; ENMIN  =  165.250 eV                                                          
   RCLOC  =    2.212    cutoff for local pot                                                        
   LCOR   =        T    correct aug charges                                                         
   LPAW   =        T    paw PP                                                                      
   EAUG   =  335.116                                                                                
   DEXC   =    0.000                                                                                
   RMAX   =    3.077    core radius for proj-oper                                                   
   RAUG   =    1.300    factor for augmentation sphere                                              
   RDEP   =    3.047    radius for radial grids                                                     
   RDEPT  =    2.344    core radius for aug-charge                                                  
                                                                                                    
   Atomic configuration                                                                             
   16 entries                                                                                       
     n  l   j            E        occ.                                                              
     1  0  0.50    -65259.4397   2.0000                                                             
     2  0  0.50    -11157.9882   2.0000                                                             
     2  1  1.50     -9795.2113   6.0000                                                             
     3  0  0.50     -2541.4058   2.0000                                                             
     3  1  1.50     -2134.4770   6.0000                                                             
     3  2  2.50     -1653.5418  10.0000                                                             
     4  0  0.50      -510.9575   2.0000                                                             
     4  1  1.50      -377.5023   6.0000                                                             
     4  2  2.50      -205.2085  10.0000                                                             
     4  3  3.50       -15.4905  14.0000                                                             
     5  0  0.50       -65.6020   2.0000                                                             
     5  1  1.50       -34.2798   6.0000                                                             
     5  2  2.50        -1.9877   3.0000                                                             
     6  0  0.50        -4.7357   1.0000                                                             
     6  1  1.50        -1.3606   0.0000                                                             
     5  3  2.50        -1.3606   0.0000                                                             
   Description                                                                                      
     l       E           TYP  RCUT    TYP  RCUT                                                     
     2     -1.9876627     23  2.500                                                                 
     2      0.0744703     23  2.500                                                                 
     0     -4.7356889     23  2.600                                                                 
     0      3.2364747     23  2.600                                                                 
     1     -1.3605826     23  3.000                                                                 
     1     27.2116520     23  3.000                                                                 
  local pseudopotential read in
  partial core-charges read in
  partial kinetic energy density read in
  atomic valenz-charges read in
  non local Contribution for L=           2  read in
    real space projection operators read in
  non local Contribution for L=           2  read in
    real space projection operators read in
  non local Contribution for L=           0  read in
    real space projection operators read in
  non local Contribution for L=           0  read in
    real space projection operators read in
  non local Contribution for L=           1  read in
    real space projection operators read in
  non local Contribution for L=           1  read in
    real space projection operators read in
    PAW grid and wavefunctions read in
 
   number of l-projection  operators is LMAX  =           6
   number of lm-projection operators is LMMAX =          18
 
 POTCAR:    PAW_PBE Br 06Sep2000                  
   SHA256 =  96a73d2954943bbee26f4990d676cc6c3bf44b8dd2c75cd4b3b825d8403f0103 Br/POTCAR             
   COPYR  = (c) Copyright 06Sep2000 Georg Kresse                                                    
   COPYR  = This file is part of the software VASP. Any use, copying, and all other rights are regul
   COPYR  = If you do not have a valid VASP license, you may not use, copy or distribute this file. 
   VRHFIN =Br: s2p5                                                                                 
   LEXCH  = PE                                                                                      
   EATOM  =   368.4488 eV,   27.0802 Ry                                                             
                                                                                                    
   TITEL  = PAW_PBE Br 06Sep2000                                                                    
   LULTRA =        F    use ultrasoft PP ?                                                          
   IUNSCR =        1    unscreen: 0-lin 1-nonlin 2-no                                               
   RPACOR =    1.900    partial core radius                                                         
   POMASS =   79.904; ZVAL   =    7.000    mass and valenz                                          
   RCORE  =    2.100    outmost cutoff radius                                                       
   RWIGS  =    2.200; RWIGS  =    1.164    wigner-seitz radius (au A)                               
   ENMAX  =  216.285; ENMIN  =  162.214 eV                                                          
   ICORE  =        3    local potential                                                             
   LCOR   =        T    correct aug charges                                                         
   LPAW   =        T    paw PP                                                                      
   EAUG   =  503.852                                                                                
   DEXC   =    0.000                                                                                
   RMAX   =    2.139    core radius for proj-oper                                                   
   RAUG   =    1.300    factor for augmentation sphere                                              
   RDEP   =    2.186    radius for radial grids                                                     
   RDEPT  =    1.890    core radius for aug-charge                                                  
                                                                                                    
   Atomic configuration                                                                             
   10 entries                                                                                       
     n  l   j            E        occ.                                                              
     1  0  0.50    -13316.2796   2.0000                                                             
     2  0  0.50     -1732.8239   2.0000                                                             
     2  1  1.50     -1528.2193   6.0000                                                             
     3  0  0.50      -238.0460   2.0000                                                             
     3  1  1.50      -173.4609   6.0000                                                             
     3  2  2.50       -66.7132  10.0000                                                             
     4  0  0.50       -20.1334   2.0000                                                             
     4  1  0.50        -7.8591   5.0000                                                             
     4  2  2.50        -8.1635   0.0000                                                             
     4  3  2.50        -8.1635   0.0000                                                             
   Description                                                                                      
     l       E           TYP  RCUT    TYP  RCUT                                                     
     0    -20.1333652     23  2.100                                                                 
     0    -21.4939478     23  2.100                                                                 
     1     -7.8591052     23  2.100                                                                 
     1     -3.1608434     23  2.100                                                                 
     2     -8.1634956     23  2.100                                                                 
     3     -1.3605826      7  2.100                                                                 
  local pseudopotential read in
  partial core-charges read in
  partial kinetic energy density read in
  atomic valenz-charges read in
  non local Contribution for L=           0  read in
    real space projection operators read in
  non local Contribution for L=           0  read in
    real space projection operators read in
  non local Contribution for L=           1  read in
    real space projection operators read in
  non local Contribution for L=           1  read in
    real space projection operators read in
  non local Contribution for L=           2  read in
    real space projection operators read in
    PAW grid and wavefunctions read in
 
   number of l-projection  operators is LMAX  =           5
   number of lm-projection operators is LMMAX =          13
 
  PAW_PBE Hf 20Jan2003                  :
 energy of atom  1       EATOM=  -75.9011
 kinetic energy error for atom=    0.0082 (will be added to EATOM!!)
  PAW_PBE Br 06Sep2000                  :
 energy of atom  2       EATOM= -368.4488
 kinetic energy error for atom=    0.0074 (will be added to EATOM!!)
 
 
 POSCAR: Hf Br Hf Br
  positions in cartesian coordinates
  No initial velocities read in


 exchange-correlation table for PE
   RHO(1)=    0.500       N(1)  =     2000
   RHO(2)=  100.500       N(2)  =     4000
 


--------------------------------------------------------------------------------------------------------


 ion  position               nearest neighbor table
   1  0.333  0.667  0.953-   3 2.77   3 2.77   3 2.77   2 3.03   2 3.03   2 3.03
   2  0.667  0.333  0.047-   4 2.77   4 2.77   4 2.77   1 3.03   1 3.03   1 3.03
   3  0.000  0.000  0.874-   1 2.77   1 2.77   1 2.77
   4  0.000  0.000  0.126-   2 2.77   2 2.77   2 2.77
 
  LATTYP: Found a hexagonal cell.
 ALAT       =     3.4803589418
 C/A-ratio  =     6.9201884375
  
  Lattice vectors:
  
 A1 = (   1.7401794709,  -3.0140792579,   0.0000000000)
 A2 = (   1.7401794709,   3.0140792579,   0.0000000000)
 A3 = (   0.0000000000,   0.0000000000,  24.0847397074)


Analysis of symmetry for initial positions (statically):
=====================================================================
 Subroutine PRICEL returns:
 Original cell was already a primitive cell.
 

 Routine SETGRP: Setting up the symmetry group for a 
 hexagonal supercell.


 Subroutine GETGRP returns: Found 12 space group operations
 (whereof 12 operations were pure point group operations)
 out of a pool of 24 trial point group operations.


The static configuration has the point symmetry D_3d.


Analysis of symmetry for dynamics (positions and initial velocities):
=====================================================================
 Subroutine PRICEL returns:
 Original cell was already a primitive cell.
 

 Routine SETGRP: Setting up the symmetry group for a 
 hexagonal supercell.


 Subroutine GETGRP returns: Found 12 space group operations
 (whereof 12 operations were pure point group operations)
 out of a pool of 24 trial point group operations.


The dynamic configuration has the point symmetry D_3d.


Analysis of structural, dynamic, and magnetic symmetry:
=====================================================================
 Subroutine PRICEL returns:
 Original cell was already a primitive cell.
 

 Routine SETGRP: Setting up the symmetry group for a 
 hexagonal supercell.


 Subroutine GETGRP returns: Found 12 space group operations
 (whereof 12 operations were pure point group operations)
 out of a pool of 24 trial point group operations.


The overall configuration has the point symmetry D_3d.


 Subroutine INISYM returns: Found 12 space group operations
 (whereof 12 operations are pure point group operations),
 and found     1 'primitive' translations


----------------------------------------------------------------------------------------

                                     Primitive cell                                     

  volume of cell :     252.6508

  direct lattice vectors                    reciprocal lattice vectors
     1.740179471 -3.014079258  0.000000000     0.287326686 -0.165888139  0.000000000
     1.740179471  3.014079258  0.000000000     0.287326686  0.165888139  0.000000000
     0.000000000  0.000000000 24.084739707     0.000000000  0.000000000  0.041520067

  length of vectors
     3.480358942  3.480358942 24.084739707     0.331776279  0.331776279  0.041520067

  position of ions in fractional coordinates (direct lattice)
     0.333333333  0.666666667  0.952996399
     0.666666667  0.333333333  0.047003601
     0.000000000  0.000000000  0.873812139
     0.000000000  0.000000000  0.126187861

  ion indices of the primitive-cell ions
   primitive index   ion index
                 1           1
                 2           2
                 3           3
                 4           4

----------------------------------------------------------------------------------------

 
 
 KPOINTS: k-points for bandstructure G-M-K-G      

Interpolating k-points between supplied coordinates.

 Line segments in fractional coordinates (reciprocal lattice):
    0.000000  0.000000  0.000000  ...  0.000000  0.500000  0.000000
    0.000000  0.500000  0.000000  ...  0.333333  0.333333  0.000000
    0.333333  0.333333  0.000000  ...  0.000000  0.000000  0.000000

 Generated    20 points on each line segment, for a total of     60 k-points:

 Following reciprocal coordinates:
            Coordinates               Weight
  0.000000  0.000000  0.000000      0.016667
  0.000000  0.026316  0.000000      0.016667
  0.000000  0.052632  0.000000      0.016667
  0.000000  0.078947  0.000000      0.016667
  0.000000  0.105263  0.000000      0.016667
  0.000000  0.131579  0.000000      0.016667
  0.000000  0.157895  0.000000      0.016667
  0.000000  0.184211  0.000000      0.016667
  0.000000  0.210526  0.000000      0.016667
  0.000000  0.236842  0.000000      0.016667
  0.000000  0.263158  0.000000      0.016667
  0.000000  0.289474  0.000000      0.016667
  0.000000  0.315789  0.000000      0.016667
  0.000000  0.342105  0.000000      0.016667
  0.000000  0.368421  0.000000      0.016667
  0.000000  0.394737  0.000000      0.016667
  0.000000  0.421053  0.000000      0.016667
  0.000000  0.447368  0.000000      0.016667
  0.000000  0.473684  0.000000      0.016667
  0.000000  0.500000  0.000000      0.016667
  0.000000  0.500000  0.000000      0.016667
  0.017544  0.491228  0.000000      0.016667
  0.035088  0.482456  0.000000      0.016667
  0.052632  0.473684  0.000000      0.016667
  0.070175  0.464912  0.000000      0.016667
  0.087719  0.456140  0.000000      0.016667
  0.105263  0.447368  0.000000      0.016667
  0.122807  0.438596  0.000000      0.016667
  0.140351  0.429825  0.000000      0.016667
  0.157895  0.421053  0.000000      0.016667
  0.175439  0.412281  0.000000      0.016667
  0.192982  0.403509  0.000000      0.016667
  0.210526  0.394737  0.000000      0.016667
  0.228070  0.385965  0.000000      0.016667
  0.245614  0.377193  0.000000      0.016667
  0.263158  0.368421  0.000000      0.016667
  0.280702  0.359649  0.000000      0.016667
  0.298246  0.350877  0.000000      0.016667
  0.315789  0.342105  0.000000      0.016667
  0.333333  0.333333  0.000000      0.016667
  0.333333  0.333333  0.000000      0.016667
  0.315789  0.315789  0.000000      0.016667
  0.298246  0.298246  0.000000      0.016667
  0.280702  0.280702  0.000000      0.016667
  0.263158  0.263158  0.000000      0.016667
  0.245614  0.245614  0.000000      0.016667
  0.228070  0.228070  0.000000      0.016667
  0.210526  0.210526  0.000000      0.016667
  0.192982  0.192982  0.000000      0.016667
  0.175439  0.175439  0.000000      0.016667
  0.157895  0.157895  0.000000      0.016667
  0.140351  0.140351  0.000000      0.016667
  0.122807  0.122807  0.000000      0.016667
  0.105263  0.105263  0.000000      0.016667
  0.087719  0.087719  0.000000      0.016667
  0.070175  0.070175  0.000000      0.016667
  0.052632  0.052632  0.000000      0.016667
  0.035088  0.035088  0.000000      0.016667
  0.017544  0.017544  0.000000      0.016667
  0.000000 -0.000000  0.000000      0.016667

 Following cartesian coordinates:
            Coordinates               Weight
  0.000000  0.000000  0.000000      0.016667
  0.007561  0.004365  0.000000      0.016667
  0.015122  0.008731  0.000000      0.016667
  0.022684  0.013096  0.000000      0.016667
  0.030245  0.017462  0.000000      0.016667
  0.037806  0.021827  0.000000      0.016667
  0.045367  0.026193  0.000000      0.016667
  0.052929  0.030558  0.000000      0.016667
  0.060490  0.034924  0.000000      0.016667
  0.068051  0.039289  0.000000      0.016667
  0.075612  0.043655  0.000000      0.016667
  0.083174  0.048020  0.000000      0.016667
  0.090735  0.052386  0.000000      0.016667
  0.098296  0.056751  0.000000      0.016667
  0.105857  0.061117  0.000000      0.016667
  0.113418  0.065482  0.000000      0.016667
  0.120980  0.069848  0.000000      0.016667
  0.128541  0.074213  0.000000      0.016667
  0.136102  0.078579  0.000000      0.016667
  0.143663  0.082944  0.000000      0.016667
  0.143663  0.082944  0.000000      0.016667
  0.146184  0.078579  0.000000      0.016667
  0.148704  0.074213  0.000000      0.016667
  0.151225  0.069848  0.000000      0.016667
  0.153745  0.065482  0.000000      0.016667
  0.156265  0.061117  0.000000      0.016667
  0.158786  0.056751  0.000000      0.016667
  0.161306  0.052386  0.000000      0.016667
  0.163827  0.048020  0.000000      0.016667
  0.166347  0.043655  0.000000      0.016667
  0.168867  0.039289  0.000000      0.016667
  0.171388  0.034924  0.000000      0.016667
  0.173908  0.030558  0.000000      0.016667
  0.176429  0.026193  0.000000      0.016667
  0.178949  0.021827  0.000000      0.016667
  0.181469  0.017462  0.000000      0.016667
  0.183990  0.013096  0.000000      0.016667
  0.186510  0.008731  0.000000      0.016667
  0.189031  0.004365  0.000000      0.016667
  0.191551 -0.000000  0.000000      0.016667
  0.191551 -0.000000  0.000000      0.016667
  0.181469 -0.000000  0.000000      0.016667
  0.171388 -0.000000  0.000000      0.016667
  0.161306 -0.000000  0.000000      0.016667
  0.151225 -0.000000  0.000000      0.016667
  0.141143 -0.000000  0.000000      0.016667
  0.131061 -0.000000  0.000000      0.016667
  0.120980 -0.000000  0.000000      0.016667
  0.110898 -0.000000  0.000000      0.016667
  0.100816 -0.000000  0.000000      0.016667
  0.090735 -0.000000  0.000000      0.016667
  0.080653 -0.000000  0.000000      0.016667
  0.070571 -0.000000  0.000000      0.016667
  0.060490 -0.000000  0.000000      0.016667
  0.050408 -0.000000  0.000000      0.016667
  0.040327 -0.000000  0.000000      0.016667
  0.030245 -0.000000  0.000000      0.016667
  0.020163 -0.000000  0.000000      0.016667
  0.010082 -0.000000  0.000000      0.016667
  0.000000 -0.000000  0.000000      0.016667
 


--------------------------------------------------------------------------------------------------------




 Dimension of arrays:
   k-points           NKPTS =     60   k-points in BZ     NKDIM =     60   number of bands    NBANDS=     48
   number of dos      NEDOS =    301   number of ions     NIONS =      4
   non local maximal  LDIM  =      6   non local SUM 2l+1 LMDIM =     18
   total plane-waves  NPLWV =  56000
   max r-space proj   IRMAX =      1   max aug-charges    IRDMAX=  10531
   dimension x,y,z NGX =    20 NGY =   20 NGZ =  140
   dimension x,y,z NGXF=    36 NGYF=   36 NGZF=  240
   support grid    NGXF=    36 NGYF=   36 NGZF=  240
   ions per type =               2   2
   NGX,Y,Z   is equivalent  to a cutoff of   9.55,  9.55,  9.66 a.u.
   NGXF,Y,Z  is equivalent  to a cutoff of  17.20, 17.20, 16.57 a.u.

 SYSTEM =  Hf  Br  Hf  Br                          
 POSCAR =  Hf Br Hf Br                             

 Startparameter for this run:
   NWRITE =      2    write-flag & timer
   PREC   = high      normal or accurate (medium, high low for compatibility)
   ISTART =      0    job   : 0-new  1-cont  2-samecut
   ICHARG =     11    charge: 1-file 2-atom 10-const
   ISPIN  =      1    spin polarized calculation?
   LNONCOLLINEAR =      T non collinear calculations
   LSORBIT =      T    spin-orbit coupling
   INIWAV =      1    electr: 0-lowe 1-rand  2-diag
   LASPH  =      F    aspherical Exc in radial PAW
 Electronic Relaxation 1
   ENCUT  =  286.0 eV  21.02 Ry    4.58 a.u.   4.80  4.80 33.21*2*pi/ulx,y,z
   ENINI  =  286.0     initial cutoff
   ENAUG  =  503.9 eV  augmentation charge cutoff
   NELM   =     80;   NELMIN=  6; NELMDL= -5     # of ELM steps 
   EDIFF  = 0.1E-05   stopping-criterion for ELM
   LREAL  =      F    real-space projection
   NLSPLINE    = F    spline interpolate recip. space projectors
   LCOMPAT=      F    compatible to vasp.4.4
   GGA_COMPAT  = T    GGA compatible to vasp.4.4-vasp.4.6
   LMAXPAW     = -100 max onsite density
   LMAXMIX     =    2 max onsite mixed and CHGCAR
   VOSKOWN=      0    Vosko Wilk Nusair interpolation
   ROPT   =    0.00000   0.00000
 Ionic relaxation
   EDIFFG = 0.1E-04   stopping-criterion for IOM
   NSW    =      0    number of steps for IOM
   NBLOCK =      1;   KBLOCK =      1    inner block; outer block 
   IBRION =     -1    ionic relax: 0-MD 1-quasi-New 2-CG
   NFREE  =      0    steps in history (QN), initial steepest desc. (CG)
   ISIF   =      2    stress and relaxation
   IWAVPR =     10    prediction:  0-non 1-charg 2-wave 3-comb
   ISYM   =      2    0-nonsym 1-usesym 2-fastsym
   LCORR  =      T    Harris-Foulkes like correction to forces

   POTIM  = 0.5000    time-step for ionic-motion
   TEIN   =    0.0    initial temperature
   TEBEG  =    0.0;   TEEND  =   0.0 temperature during run
   SMASS  =  -3.00    Nose mass-parameter (am)
   estimated Nose-frequenzy (Omega)   =  0.10E-29 period in steps = 0.13E+47 mass=  -0.277E-27a.u.
   SCALEE = 1.0000    scale energy and forces
   NPACO  =    256;   APACO  = 10.0  distance and # of slots for P.C.
   PSTRESS=    0.0 pullay stress

  Mass of Ions in am
   POMASS = 178.49 79.90
  Ionic Valenz
   ZVAL   =   4.00  7.00
  Atomic Wigner-Seitz radii
   RWIGS  =  -1.00 -1.00
  virtual crystal weights 
   VCA    =   1.00  1.00
   NELECT =      22.0000    total number of electrons
   NUPDOWN=      -1.0000    fix difference up-down

 DOS related values:
   EMIN   =  10.00;   EMAX   =-10.00  energy-range for DOS
   EFERMI =   0.00;   METHOD = LEGACY      
   ISMEAR =     0;   SIGMA  =   0.01  broadening in eV -4-tet -1-fermi 0-gaus

 Electronic relaxation 2 (details)
   IALGO  =     38    algorithm
   LDIAG  =      T    sub-space diagonalisation (order eigenvalues)
   LSUBROT=      F    optimize rotation matrix (better conditioning)
   TURBO    =      0    0=normal 1=particle mesh
   IRESTART =      0    0=no restart 2=restart with 2 vectors
   NREBOOT  =      0    no. of reboots
   NMIN     =      0    reboot dimension
   EREF     =   0.00    reference energy to select bands
   IMIX   =      4    mixing-type and parameters
     AMIX     =   0.40;   BMIX     =  1.00
     AMIX_MAG =   1.60;   BMIX_MAG =  1.00
     AMIN     =   0.10
     WC   =   100.;   INIMIX=   1;  MIXPRE=   1;  MAXMIX= -45

 Intra band minimization:
   WEIMIN = 0.0000     energy-eigenvalue tresh-hold
   EBREAK =  0.52E-08  absolut break condition
   DEPER  =   0.30     relativ break condition  

   TIME   =   0.40     timestep for ELM

  volume/ion in A,a.u.               =      63.16       426.24
  Fermi-wavevector in a.u.,A,eV,Ry     =   0.725619  1.371222  7.163786  0.526523
  Thomas-Fermi vector in A             =   1.816387
 
 Write flags
   LWAVE        =      F    write WAVECAR
   LDOWNSAMPLE  =      F    k-point downsampling of WAVECAR
   LCHARG       =      F    write CHGCAR
   LVTOT        =      F    write LOCPOT, total local potential
   LVHAR        =      F    write LOCPOT, Hartree potential only
   WRT_POTENTIAL= false  ! write potential to hdf5 file
   LELF         =      F    write electronic localiz. function (ELF)
   LORBIT       =     11    0 simple, 1 ext, 2 COOP (PROOUT), +10 PAW based schemes


 Dipole corrections
   LMONO      =      F    monopole corrections only (constant potential shift)
   LDIPOL     =      F    correct potential (dipole corrections)
   IDIPOL     =      0    1-x, 2-y, 3-z, 4-all directions 
   EPSILON    =  1.0000000 bulk dielectric constant
   LVACPOTAV  =      F  vacuum potentials using an averaging scheme for the charge density
   VACPOTFLAT =  0.1000000 required flatness to determine vacuum potential
 Exchange correlation treatment:
   GGA     = PE    functional components
   XC_C    = 1    coefficients multiplying the functional components
   LIBXC   =     F    Libxc                    
   VOSKOWN =     0    Vosko Wilk Nusair interpolation
   LHFCALC =     F    Hartree Fock is set to
   LHFONE  =     F    Hartree Fock one center treatment
   AEXX    =    0.0000 exact exchange contribution

 Parameters of functionals:
   PE:
     No parameter
 
 Van der Waals corrections
   IVDW    =     0    specifies the selected vdW correction

 Linear response parameters
   LEPSILON=     F    determine dielectric tensor
   LRPA    =     F    only Hartree local field effects (RPA)
   LNABLA  =     F    use nabla operator in PAW spheres
   LVEL    =     F    velocity operator in full k-point grid
   CSHIFT  =0.1000    complex shift for real part using Kramers Kronig
   OMEGAMAX=  -1.0    maximum frequency
   DEG_THRESHOLD= 0.2000000E-02 threshold for treating states as degnerate
   RTIME   =   -0.100 relaxation time in fs
  (WPLASMAI=    0.000 imaginary part of plasma frequency in eV, 0.658/RTIME)
   DFIELD  = 0.0000000 0.0000000 0.0000000 field for delta impulse in time
 
  Optional k-point grid parameters
   LKPOINTS_OPT  =     F    use optional k-point grid
   KPOINTS_OPT_MODE=     1    mode for optional k-point grid
 
 Orbital magnetization related:
   ORBITALMAG=     F  switch on orbital magnetization
   LCHIMAG   =     F  perturbation theory with respect to B field
   DQ        =  0.001000  dq finite difference perturbation B field
   LLRAUG    =     F  two centre corrections for induced B field
   LBONE     =     F  B-component reconstruction in AE one-centre
   LVGVCALC  =     T  calculate vGv susceptibility
   LVGVAPPL  =     F  apply vGv susceptibility instead of pGv for G=0

 Random number generation:
   RANDOM_GENERATOR = DEFAULT
   PCG_SEED         = not used


--------------------------------------------------------------------------------------------------------


 Static calculation
 charge density and potential remain constant during run
 non collinear spin polarized calculation
 Variant of blocked Davidson
 Davidson routine will perform the subspace rotation
 perform sub-space diagonalisation
    after iterative eigenvector-optimisation
 no mixing
 using additional bands           37
 reciprocal scheme for non local part
 use partial core corrections
 calculate Harris-corrections to forces 
   (improved forces if not selfconsistent)
 use gradient corrections 
 WARNING: stress and forces are not correct
  (second derivative of E(xc) not defined)
 use of overlap-Matrix (Vanderbilt PP)
 Gauss-broadening in eV      SIGMA  =   0.01


--------------------------------------------------------------------------------------------------------


  energy-cutoff  :      286.00
  volume of cell :      252.65
      direct lattice vectors                 reciprocal lattice vectors
     1.740179471 -3.014079258  0.000000000     0.287326686 -0.165888139  0.000000000
     1.740179471  3.014079258  0.000000000     0.287326686  0.165888139  0.000000000
     0.000000000  0.000000000 24.084739707     0.000000000  0.000000000  0.041520067

  length of vectors
     3.480358942  3.480358942 24.084739707     0.331776279  0.331776279  0.041520067


 
 k-points in units of 2pi/SCALE and weight: k-points for bandstructure G-M-K-G      
   0.00000000  0.00000000  0.00000000       0.017
   0.00756123  0.00436548  0.00000000       0.017
   0.01512246  0.00873095  0.00000000       0.017
   0.02268369  0.01309643  0.00000000       0.017
   0.03024491  0.01746191  0.00000000       0.017
   0.03780614  0.02182739  0.00000000       0.017
   0.04536737  0.02619286  0.00000000       0.017
   0.05292860  0.03055834  0.00000000       0.017
   0.06048983  0.03492382  0.00000000       0.017
   0.06805106  0.03928930  0.00000000       0.017
   0.07561229  0.04365477  0.00000000       0.017
   0.08317351  0.04802025  0.00000000       0.017
   0.09073474  0.05238573  0.00000000       0.017
   0.09829597  0.05675121  0.00000000       0.017
   0.10585720  0.06111668  0.00000000       0.017
   0.11341843  0.06548216  0.00000000       0.017
   0.12097966  0.06984764  0.00000000       0.017
   0.12854089  0.07421311  0.00000000       0.017
   0.13610211  0.07857859  0.00000000       0.017
   0.14366334  0.08294407  0.00000000       0.017
   0.14366334  0.08294407  0.00000000       0.017
   0.14618375  0.07857859  0.00000000       0.017
   0.14870416  0.07421311  0.00000000       0.017
   0.15122457  0.06984764  0.00000000       0.017
   0.15374498  0.06548216  0.00000000       0.017
   0.15626539  0.06111668  0.00000000       0.017
   0.15878580  0.05675121  0.00000000       0.017
   0.16130621  0.05238573  0.00000000       0.017
   0.16382662  0.04802025  0.00000000       0.017
   0.16634703  0.04365477  0.00000000       0.017
   0.16886744  0.03928930  0.00000000       0.017
   0.17138785  0.03492382  0.00000000       0.017
   0.17390826  0.03055834  0.00000000       0.017
   0.17642867  0.02619286  0.00000000       0.017
   0.17894908  0.02182739  0.00000000       0.017
   0.18146949  0.01746191  0.00000000       0.017
   0.18398990  0.01309643  0.00000000       0.017
   0.18651030  0.00873095  0.00000000       0.017
   0.18903071  0.00436548  0.00000000       0.017
   0.19155112 -0.00000000  0.00000000       0.017
   0.19155112 -0.00000000  0.00000000       0.017
   0.18146949 -0.00000000  0.00000000       0.017
   0.17138785 -0.00000000  0.00000000       0.017
   0.16130621 -0.00000000  0.00000000       0.017
   0.15122457 -0.00000000  0.00000000       0.017
   0.14114293 -0.00000000  0.00000000       0.017
   0.13106130 -0.00000000  0.00000000       0.017
   0.12097966 -0.00000000  0.00000000       0.017
   0.11089802 -0.00000000  0.00000000       0.017
   0.10081638 -0.00000000  0.00000000       0.017
   0.09073474 -0.00000000  0.00000000       0.017
   0.08065310 -0.00000000  0.00000000       0.017
   0.07057147 -0.00000000  0.00000000       0.017
   0.06048983 -0.00000000  0.00000000       0.017
   0.05040819 -0.00000000  0.00000000       0.017
   0.04032655 -0.00000000  0.00000000       0.017
   0.03024491 -0.00000000  0.00000000       0.017
   0.02016328 -0.00000000  0.00000000       0.017
   0.01008164 -0.00000000  0.00000000       0.017
   0.00000000 -0.00000000  0.00000000       0.017
 
 k-points in reciprocal lattice and weights: k-points for bandstructure G-M-K-G      
   0.00000000  0.00000000  0.00000000       0.017
   0.00000000  0.02631579  0.00000000       0.017
   0.00000000  0.05263158  0.00000000       0.017
   0.00000000  0.07894737  0.00000000       0.017
   0.00000000  0.10526316  0.00000000       0.017
   0.00000000  0.13157895  0.00000000       0.017
   0.00000000  0.15789474  0.00000000       0.017
   0.00000000  0.18421053  0.00000000       0.017
   0.00000000  0.21052632  0.00000000       0.017
   0.00000000  0.23684211  0.00000000       0.017
   0.00000000  0.26315789  0.00000000       0.017
   0.00000000  0.28947368  0.00000000       0.017
   0.00000000  0.31578947  0.00000000       0.017
   0.00000000  0.34210526  0.00000000       0.017
   0.00000000  0.36842105  0.00000000       0.017
   0.00000000  0.39473684  0.00000000       0.017
   0.00000000  0.42105263  0.00000000       0.017
   0.00000000  0.44736842  0.00000000       0.017
   0.00000000  0.47368421  0.00000000       0.017
   0.00000000  0.50000000  0.00000000       0.017
   0.00000000  0.50000000  0.00000000       0.017
   0.01754386  0.49122807  0.00000000       0.017
   0.03508772  0.48245614  0.00000000       0.017
   0.05263158  0.47368421  0.00000000       0.017
   0.07017544  0.46491228  0.00000000       0.017
   0.08771930  0.45614035  0.00000000       0.017
   0.10526316  0.44736842  0.00000000       0.017
   0.12280702  0.43859649  0.00000000       0.017
   0.14035088  0.42982456  0.00000000       0.017
   0.15789474  0.42105263  0.00000000       0.017
   0.17543860  0.41228070  0.00000000       0.017
   0.19298246  0.40350877  0.00000000       0.017
   0.21052632  0.39473684  0.00000000       0.017
   0.22807018  0.38596491  0.00000000       0.017
   0.24561404  0.37719298  0.00000000       0.017
   0.26315789  0.36842105  0.00000000       0.017
   0.28070175  0.35964912  0.00000000       0.017
   0.29824561  0.35087719  0.00000000       0.017
   0.31578947  0.34210526  0.00000000       0.017
   0.33333333  0.33333333  0.00000000       0.017
   0.33333333  0.33333333  0.00000000       0.017
   0.31578947  0.31578947  0.00000000       0.017
   0.29824561  0.29824561  0.00000000       0.017
   0.28070175  0.28070175  0.00000000       0.017
   0.26315789  0.26315789  0.00000000       0.017
   0.24561404  0.24561404  0.00000000       0.017
   0.22807018  0.22807018  0.00000000       0.017
   0.21052632  0.21052632  0.00000000       0.017
   0.19298246  0.19298246  0.00000000       0.017
   0.17543860  0.17543860  0.00000000       0.017
   0.15789474  0.15789474  0.00000000       0.017
   0.14035088  0.14035088  0.00000000       0.017
   0.12280702  0.12280702  0.00000000       0.017
   0.10526316  0.10526316  0.00000000       0.017
   0.08771930  0.08771930  0.00000000       0.017
   0.07017544  0.07017544  0.00000000       0.017
   0.05263158  0.05263158  0.00000000       0.017
   0.03508772  0.03508772  0.00000000       0.017
   0.01754386  0.01754386  0.00000000       0.017
   0.00000000 -0.00000000  0.00000000       0.017
 
 position of ions in fractional coordinates (direct lattice) 
   0.33333333  0.66666667  0.95299640
   0.66666667  0.33333333  0.04700360
   0.00000000  0.00000000  0.87381214
   0.00000000  0.00000000  0.12618786
 
 position of ions in cartesian coordinates  (Angst):
   1.74017947  1.00469309 22.95267022
   1.74017947 -1.00469309  1.13206949
   0.00000000  0.00000000 21.04553791
   0.00000000  0.00000000  3.03920179
 
 Euler angles ALPHA=     0.0000000  BETA=     0.0000000

 transformation matrix from SAXIS to cartesian coordinates
 ---------------------------------------------------------
     1.0000000 m_x     0.0000000 m_y     0.0000000 m_z
     0.0000000 m_x     1.0000000 m_y     0.0000000 m_z
     0.0000000 m_x     0.0000000 m_y     1.0000000 m_z

 transformation matrix from cartesian coordinates to SAXIS
 ---------------------------------------------------------
     1.0000000 m_x     0.0000000 m_y     0.0000000 m_z
     0.0000000 m_x     1.0000000 m_y     0.0000000 m_z
     0.0000000 m_x     0.0000000 m_y     1.0000000 m_z




--------------------------------------------------------------------------------------------------------


 k-point     1 :   0.0000 0.0000 0.0000  plane waves:    5582
 k-point     2 :   0.0000 0.0263 0.0000  plane waves:    5578
 k-point     3 :   0.0000 0.0526 0.0000  plane waves:    5562
 k-point     4 :   0.0000 0.0789 0.0000  plane waves:    5570
 k-point     5 :   0.0000 0.1053 0.0000  plane waves:    5566
 k-point     6 :   0.0000 0.1316 0.0000  plane waves:    5526
 k-point     7 :   0.0000 0.1579 0.0000  plane waves:    5512
 k-point     8 :   0.0000 0.1842 0.0000  plane waves:    5524
 k-point     9 :   0.0000 0.2105 0.0000  plane waves:    5508
 k-point    10 :   0.0000 0.2368 0.0000  plane waves:    5504
 k-point    11 :   0.0000 0.2632 0.0000  plane waves:    5532
 k-point    12 :   0.0000 0.2895 0.0000  plane waves:    5552
 k-point    13 :   0.0000 0.3158 0.0000  plane waves:    5568
 k-point    14 :   0.0000 0.3421 0.0000  plane waves:    5556
 k-point    15 :   0.0000 0.3684 0.0000  plane waves:    5552
 k-point    16 :   0.0000 0.3947 0.0000  plane waves:    5560
 k-point    17 :   0.0000 0.4211 0.0000  plane waves:    5548
 k-point    18 :   0.0000 0.4474 0.0000  plane waves:    5556
 k-point    19 :   0.0000 0.4737 0.0000  plane waves:    5560
 k-point    20 :   0.0000 0.5000 0.0000  plane waves:    5536
 k-point    21 :   0.0000 0.5000 0.0000  plane waves:    5536
 k-point    22 :   0.0175 0.4912 0.0000  plane waves:    5564
 k-point    23 :   0.0351 0.4825 0.0000  plane waves:    5580
 k-point    24 :   0.0526 0.4737 0.0000  plane waves:    5580
 k-point    25 :   0.0702 0.4649 0.0000  plane waves:    5564
 k-point    26 :   0.0877 0.4561 0.0000  plane waves:    5588
 k-point    27 :   0.1053 0.4474 0.0000  plane waves:    5596
 k-point    28 :   0.1228 0.4386 0.0000  plane waves:    5588
 k-point    29 :   0.1404 0.4298 0.0000  plane waves:    5580
 k-point    30 :   0.1579 0.4211 0.0000  plane waves:    5556
 k-point    31 :   0.1754 0.4123 0.0000  plane waves:    5556
 k-point    32 :   0.1930 0.4035 0.0000  plane waves:    5556
 k-point    33 :   0.2105 0.3947 0.0000  plane waves:    5570
 k-point    34 :   0.2281 0.3860 0.0000  plane waves:    5590
 k-point    35 :   0.2456 0.3772 0.0000  plane waves:    5570
 k-point    36 :   0.2632 0.3684 0.0000  plane waves:    5598
 k-point    37 :   0.2807 0.3596 0.0000  plane waves:    5570
 k-point    38 :   0.2982 0.3509 0.0000  plane waves:    5542
 k-point    39 :   0.3158 0.3421 0.0000  plane waves:    5518
 k-point    40 :   0.3333 0.3333 0.0000  plane waves:    5502
 k-point    41 :   0.3333 0.3333 0.0000  plane waves:    5502
 k-point    42 :   0.3158 0.3158 0.0000  plane waves:    5542
 k-point    43 :   0.2982 0.2982 0.0000  plane waves:    5570
 k-point    44 :   0.2807 0.2807 0.0000  plane waves:    5554
 k-point    45 :   0.2632 0.2632 0.0000  plane waves:    5574
 k-point    46 :   0.2456 0.2456 0.0000  plane waves:    5570
 k-point    47 :   0.2281 0.2281 0.0000  plane waves:    5542
 k-point    48 :   0.2105 0.2105 0.0000  plane waves:    5526
 k-point    49 :   0.1930 0.1930 0.0000  plane waves:    5530
 k-point    50 :   0.1754 0.1754 0.0000  plane waves:    5542
 k-point    51 :   0.1579 0.1579 0.0000  plane waves:    5538
 k-point    52 :   0.1404 0.1404 0.0000  plane waves:    5530
 k-point    53 :   0.1228 0.1228 0.0000  plane waves:    5526
 k-point    54 :   0.1053 0.1053 0.0000  plane waves:    5490
 k-point    55 :   0.0877 0.0877 0.0000  plane waves:    5514
 k-point    56 :   0.0702 0.0702 0.0000  plane waves:    5550
 k-point    57 :   0.0526 0.0526 0.0000  plane waves:    5562
 k-point    58 :   0.0351 0.0351 0.0000  plane waves:    5562
 k-point    59 :   0.0175 0.0175 0.0000  plane waves:    5570
 k-point    60 :   0.0000-0.0000 0.0000  plane waves:    5582

 maximum and minimum number of plane-waves per node :      5598     5490

 maximum number of plane-waves:      5598
 maximum index in each direction: 
   IXMAX=    4   IYMAX=    4   IZMAX=   33
   IXMIN=   -5   IYMIN=   -5   IZMIN=  -33


 serial   3D FFT for wavefunctions
 parallel 3D FFT for charge:
    minimum data exchange during FFTs selected (reduces bandwidth)


 total amount of memory used by VASP MPI-rank0    95255. kBytes
=======================================================================

   base      :      30000. kBytes
   nonl-proj :      49118. kBytes
   fftplans  :       1027. kBytes
   grid      :       9241. kBytes
   one-center:        248. kBytes
   wavefun   :       5621. kBytes
 
     INWAV:  cpu time      0.0000: real time      0.0000
 initial charge density was supplied:
 number of electron      21.9999974 magnetization       0.0000000     -0.0000000     -0.0000000
 keeping initial charge density in first step


--------------------------------------------------------------------------------------------------------


 Maximum index for augmentation-charges          336 (set IRDMAX)


--------------------------------------------------------------------------------------------------------


 First call to EWALD:  gamma=   0.280
 Maximum number of real-space cells 5x 5x 1
 Maximum number of reciprocal cells 2x 2x 9

    FEWALD:  cpu time      0.0010: real time      0.0010


--------------------------------------- Ionic step        1  -------------------------------------------




--------------------------------------- Iteration      1(   1)  ---------------------------------------


    POTLOK:  cpu time      0.0302: real time      0.0311
    SETDIJ:  cpu time      0.0052: real time      0.0056
     EDDAV:  cpu time      2.9535: real time      2.9872
       DOS:  cpu time      0.0011: real time      0.0012
    --------------------------------------------
      LOOP:  cpu time      2.9900: real time      3.0252

 eigenvalue-minimisations  :  5760
 total energy-change (2. order) : 0.7190858E+02  (-0.6038959E+03)
 number of electron      21.9999974 magnetization       0.0000000     -0.0000000     -0.0000000
 augmentation part       21.9999974 magnetization       0.0000000     -0.0000000     -0.0000000

 Free energy of the ion-electron system (eV)
  ---------------------------------------------------
  alpha Z        PSCENC =        25.72768916
  Ewald energy   TEWEN  =      2513.51094754
  -Hartree energ DENC   =     -3351.62707461
  -exchange      EXHF   =         0.00000000
  -V(xc)+E(xc)   XCENC  =       -84.12927728
  PAW double counting   =      1487.15903617    -1359.01652624
  entropy T*S    EENTRO =        -0.00014377
  eigenvalues    EBANDS =       -48.38482081
  atomic energy  EATOM  =       888.66875287
  Solvation  Ediel_sol  =         0.00000000
  ---------------------------------------------------
  free energy    TOTEN  =        71.90858302 eV

  energy without entropy =       71.90872679  energy(sigma->0) =       71.90865491


--------------------------------------------------------------------------------------------------------




--------------------------------------- Iteration      1(   2)  ---------------------------------------


     EDDAV:  cpu time      5.3171: real time      5.3685
       DOS:  cpu time      0.0007: real time      0.0007
    --------------------------------------------
      LOOP:  cpu time      5.3178: real time      5.3692

 eigenvalue-minimisations  :  9360
 total energy-change (2. order) :-0.9488627E+02  (-0.9345147E+02)
 number of electron      21.9999974 magnetization       0.0000000     -0.0000000     -0.0000000
 augmentation part       21.9999974 magnetization       0.0000000     -0.0000000     -0.0000000

 Free energy of the ion-electron system (eV)
  ---------------------------------------------------
  alpha Z        PSCENC =        25.72768916
  Ewald energy   TEWEN  =      2513.51094754
  -Hartree energ DENC   =     -3351.62707461
  -exchange      EXHF   =         0.00000000
  -V(xc)+E(xc)   XCENC  =       -84.12927728
  PAW double counting   =      1487.15903617    -1359.01652624
  entropy T*S    EENTRO =        -0.00001772
  eigenvalues    EBANDS =      -143.27121963
  atomic energy  EATOM  =       888.66875287
  Solvation  Ediel_sol  =         0.00000000
  ---------------------------------------------------
  free energy    TOTEN  =       -22.97768975 eV

  energy without entropy =      -22.97767203  energy(sigma->0) =      -22.97768089


--------------------------------------------------------------------------------------------------------




--------------------------------------- Iteration      1(   3)  ---------------------------------------


     EDDAV:  cpu time      5.8909: real time      5.9468
       DOS:  cpu time      0.0007: real time      0.0007
    --------------------------------------------
      LOOP:  cpu time      5.8916: real time      5.9475

 eigenvalue-minimisations  :  9792
 total energy-change (2. order) :-0.3606647E+01  (-0.3606524E+01)
 number of electron      21.9999974 magnetization       0.0000000     -0.0000000     -0.0000000
 augmentation part       21.9999974 magnetization       0.0000000     -0.0000000     -0.0000000

 Free energy of the ion-electron system (eV)
  ---------------------------------------------------
  alpha Z        PSCENC =        25.72768916
  Ewald energy   TEWEN  =      2513.51094754
  -Hartree energ DENC   =     -3351.62707461
  -exchange      EXHF   =         0.00000000
  -V(xc)+E(xc)   XCENC  =       -84.12927728
  PAW double counting   =      1487.15903617    -1359.01652624
  entropy T*S    EENTRO =        -0.00001898
  eigenvalues    EBANDS =      -146.87786573
  atomic energy  EATOM  =       888.66875287
  Solvation  Ediel_sol  =         0.00000000
  ---------------------------------------------------
  free energy    TOTEN  =       -26.58433711 eV

  energy without entropy =      -26.58431813  energy(sigma->0) =      -26.58432762


--------------------------------------------------------------------------------------------------------




--------------------------------------- Iteration      1(   4)  ---------------------------------------


     EDDAV:  cpu time      4.6895: real time      4.7374
       DOS:  cpu time      0.0007: real time      0.0007
    --------------------------------------------
      LOOP:  cpu time      4.6902: real time      4.7381

 eigenvalue-minimisations  :  8352
 total energy-change (2. order) :-0.1101680E-01  (-0.1101654E-01)
 number of electron      21.9999974 magnetization       0.0000000     -0.0000000     -0.0000000
 augmentation part       21.9999974 magnetization       0.0000000     -0.0000000     -0.0000000

 Free energy of the ion-electron system (eV)
  ---------------------------------------------------
  alpha Z        PSCENC =        25.72768916
  Ewald energy   TEWEN  =      2513.51094754
  -Hartree energ DENC   =     -3351.62707461
  -exchange      EXHF   =         0.00000000
  -V(xc)+E(xc)   XCENC  =       -84.12927728
  PAW double counting   =      1487.15903617    -1359.01652624
  entropy T*S    EENTRO =        -0.00001340
  eigenvalues    EBANDS =      -146.88888811
  atomic energy  EATOM  =       888.66875287
  Solvation  Ediel_sol  =         0.00000000
  ---------------------------------------------------
  free energy    TOTEN  =       -26.59535391 eV

  energy without entropy =      -26.59534051  energy(sigma->0) =      -26.59534721


--------------------------------------------------------------------------------------------------------




--------------------------------------- Iteration      1(   5)  ---------------------------------------


     EDDAV:  cpu time      5.8472: real time      5.9021
       DOS:  cpu time      0.0007: real time      0.0007



 total charge

# of ion       s       p       d       tot
------------------------------------------
    1        0.514   0.488   1.927   2.929
    2        0.514   0.488   1.927   2.929
    3        1.608   3.288   0.031   4.928
    4        1.608   3.288   0.031   4.928
--------------------------------------------------
tot          4.245   7.553   3.917  15.714



 magnetization (x)

# of ion       s       p       d       tot
------------------------------------------
    1        0.000  -0.001  -0.001  -0.001
    2       -0.000   0.001   0.001   0.001
    3        0.000   0.000   0.000   0.000
    4       -0.000  -0.000  -0.000  -0.000
--------------------------------------------------
tot         -0.000   0.000   0.000  -0.000



 magnetization (y)

# of ion       s       p       d       tot
------------------------------------------
    1        0.001  -0.002   0.019   0.019
    2       -0.001   0.002  -0.019  -0.019
    3        0.000   0.003   0.000   0.003
    4       -0.000  -0.003  -0.000  -0.003
--------------------------------------------------
tot          0.000  -0.000   0.000   0.000



 magnetization (z)

# of ion       s       p       d       tot
------------------------------------------
    1        0.003  -0.002   0.012   0.013
    2       -0.003   0.002  -0.012  -0.013
    3       -0.000   0.002   0.000   0.002
    4        0.000  -0.002  -0.000  -0.002
--------------------------------------------------
tot          0.000  -0.000  -0.000   0.000
 
    --------------------------------------------
      LOOP:  cpu time      5.8543: real time      5.9096

 eigenvalue-minimisations  :  9744
 total energy-change (2. order) :-0.1943117E-04  (-0.1943118E-04)
 number of electron      21.9999974 magnetization       0.0000000     -0.0000000     -0.0000000
 augmentation part       21.9999974 magnetization       0.0000000     -0.0000000     -0.0000000

 Free energy of the ion-electron system (eV)
  ---------------------------------------------------
  alpha Z        PSCENC =        25.72768916
  Ewald energy   TEWEN  =      2513.51094754
  -Hartree energ DENC   =     -3351.62707461
  -exchange      EXHF   =         0.00000000
  -V(xc)+E(xc)   XCENC  =       -84.12927728
  PAW double counting   =      1487.15903617    -1359.01652624
  entropy T*S    EENTRO =        -0.00001343
  eigenvalues    EBANDS =      -146.88890751
  atomic energy  EATOM  =       888.66875287
  Solvation  Ediel_sol  =         0.00000000
  ---------------------------------------------------
  free energy    TOTEN  =       -26.59537334 eV

  energy without entropy =      -26.59535991  energy(sigma->0) =      -26.59536663


--------------------------------------------------------------------------------------------------------




--------------------------------------- Iteration      1(   6)  ---------------------------------------


     EDDAV:  cpu time      5.6373: real time      5.6913
       DOS:  cpu time      0.0007: real time      0.0007
    --------------------------------------------
      LOOP:  cpu time      5.6316: real time      5.6852

 eigenvalue-minimisations  :  9552
 total energy-change (2. order) :-0.8729739E-07  (-0.8728420E-07)
 number of electron      21.9999974 magnetization       0.0000000     -0.0000000     -0.0000000
 augmentation part       21.9999974 magnetization       0.0000000     -0.0000000     -0.0000000

 Free energy of the ion-electron system (eV)
  ---------------------------------------------------
  alpha Z        PSCENC =        25.72768916
  Ewald energy   TEWEN  =      2513.51094754
  -Hartree energ DENC   =     -3351.62707461
  -exchange      EXHF   =         0.00000000
  -V(xc)+E(xc)   XCENC  =       -84.12927728
  PAW double counting   =      1487.15903617    -1359.01652624
  entropy T*S    EENTRO =        -0.00001343
  eigenvalues    EBANDS =      -146.88890760
  atomic energy  EATOM  =       888.66875287
  Solvation  Ediel_sol  =         0.00000000
  ---------------------------------------------------
  free energy    TOTEN  =       -26.59537343 eV

  energy without entropy =      -26.59536000  energy(sigma->0) =      -26.59536671


--------------------------------------------------------------------------------------------------------




 average (electrostatic) potential at core
  the test charge radii are     1.2481  1.0178
  (the norm of the test charge is              1.0000)
       1 -42.1728       2 -42.1728       3 -67.8605       4 -67.8605
 
 
 
 E-fermi :   0.1905     XC(G=0):  -4.2151     alpha+bet : -3.8324

 val. band max:        0.1722359824   @ k =   0.0000  -0.0000   0.0000
 cond. band min:       0.2088112806   @ k =   0.0000   0.5000   0.0000
 fundamental gap:      0.0365752983
 Fermi energy:         0.1905035158

 k-point     1 :       0.0000    0.0000    0.0000
  band No.  band energies     occupation 
      1     -17.7102      1.00000
      2     -17.7102      1.00000
      3     -17.6875      1.00000
      4     -17.6875      1.00000
      5      -7.3725      1.00000
      6      -7.3725      1.00000
      7      -6.6569      1.00000
      8      -6.6569      1.00000
      9      -3.9531      1.00000
     10      -3.9531      1.00000
     11      -3.8086      1.00000
     12      -3.8086      1.00000
     13      -3.5758      1.00000
     14      -3.5758      1.00000
     15      -3.4613      1.00000
     16      -3.4613      1.00000
     17      -3.2753      1.00000
     18      -3.2753      1.00000
     19      -2.1005      1.00000
     20      -2.1005      1.00000
     21       0.1722      0.99511
     22       0.1722      0.99511
     23       0.4048      0.00000
     24       0.4048      0.00000
     25       0.7325      0.00000
     26       0.7325      0.00000
     27       0.8158      0.00000
     28       0.8158      0.00000
     29       1.0517      0.00000
     30       1.0517      0.00000
     31       2.1387      0.00000
     32       2.1387      0.00000
     33       2.1795      0.00000
     34       2.1795      0.00000
     35       2.3535      0.00000
     36       2.3535      0.00000
     37       2.7224      0.00000
     38       2.7224      0.00000
     39       3.3100      0.00000
     40       3.3100      0.00000
     41       3.5758      0.00000
     42       3.5758      0.00000
     43       3.6120      0.00000
     44       3.6120      0.00000
     45       3.7733      0.00000
     46       3.7733      0.00000
     47       4.4974      0.00000
     48       4.4977      0.00000

 k-point     2 :       0.0000    0.0263    0.0000
  band No.  band energies     occupation 
      1     -17.7056      1.00000
      2     -17.7056      1.00000
      3     -17.6831      1.00000
      4     -17.6831      1.00000
      5      -7.3611      1.00000
      6      -7.3611      1.00000
      7      -6.6498      1.00000
      8      -6.6498      1.00000
      9      -3.9756      1.00000
     10      -3.9756      1.00000
     11      -3.8384      1.00000
     12      -3.8384      1.00000
     13      -3.5953      1.00000
     14      -3.5953      1.00000
     15      -3.5079      1.00000
     16      -3.5079      1.00000
     17      -3.2365      1.00000
     18      -3.2365      1.00000
     19      -2.0939      1.00000
     20      -2.0939      1.00000
     21       0.1582      1.00000
     22       0.1582      1.00000
     23       0.3903      0.00000
     24       0.3903      0.00000
     25       0.7402      0.00000
     26       0.7402      0.00000
     27       0.8178      0.00000
     28       0.8178      0.00000
     29       1.0606      0.00000
     30       1.0606      0.00000
     31       2.1266      0.00000
     32       2.1266      0.00000
     33       2.1811      0.00000
     34       2.1811      0.00000
     35       2.4037      0.00000
     36       2.4037      0.00000
     37       2.7212      0.00000
     38       2.7212      0.00000
     39       3.3318      0.00000
     40       3.3318      0.00000
     41       3.5283      0.00000
     42       3.5283      0.00000
     43       3.6578      0.00000
     44       3.6578      0.00000
     45       3.7946      0.00000
     46       3.7946      0.00000
     47       4.5572      0.00000
     48       4.5607      0.00000

 k-point     3 :       0.0000    0.0526    0.0000
  band No.  band energies     occupation 
      1     -17.6921      1.00000
      2     -17.6921      1.00000
      3     -17.6700      1.00000
      4     -17.6700      1.00000
      5      -7.3272      1.00000
      6      -7.3272      1.00000
      7      -6.6285      1.00000
      8      -6.6285      1.00000
      9      -4.0506      1.00000
     10      -4.0506      1.00000
     11      -3.9308      1.00000
     12      -3.9308      1.00000
     13      -3.6492      1.00000
     14      -3.6492      1.00000
     15      -3.5813      1.00000
     16      -3.5813      1.00000
     17      -3.1733      1.00000
     18      -3.1733      1.00000
     19      -2.0753      1.00000
     20      -2.0753      1.00000
     21       0.1094      1.00000
     22       0.1094      1.00000
     23       0.3619      0.00000
     24       0.3619      0.00000
     25       0.7497      0.00000
     26       0.7497      0.00000
     27       0.8326      0.00000
     28       0.8326      0.00000
     29       1.0880      0.00000
     30       1.0880      0.00000
     31       2.0886      0.00000
     32       2.0886      0.00000
     33       2.2074      0.00000
     34       2.2074      0.00000
     35       2.5195      0.00000
     36       2.5195      0.00000
     37       2.7248      0.00000
     38       2.7248      0.00000
     39       3.3850      0.00000
     40       3.3850      0.00000
     41       3.5076      0.00000
     42       3.5076      0.00000
     43       3.7039      0.00000
     44       3.7039      0.00000
     45       3.8521      0.00000
     46       3.8521      0.00000
     47       4.6686      0.00000
     48       4.6687      0.00000

 k-point     4 :       0.0000    0.0789    0.0000
  band No.  band energies     occupation 
      1     -17.6699      1.00000
      2     -17.6699      1.00000
      3     -17.6484      1.00000
      4     -17.6484      1.00000
      5      -7.2715      1.00000
      6      -7.2715      1.00000
      7      -6.5938      1.00000
      8      -6.5938      1.00000
      9      -4.1930      1.00000
     10      -4.1930      1.00000
     11      -4.0795      1.00000
     12      -4.0795      1.00000
     13      -3.7202      1.00000
     14      -3.7202      1.00000
     15      -3.6407      1.00000
     16      -3.6407      1.00000
     17      -3.1178      1.00000
     18      -3.1178      1.00000
     19      -2.0471      1.00000
     20      -2.0471      1.00000
     21       0.0177      1.00000
     22       0.0177      1.00000
     23       0.3459      0.00000
     24       0.3459      0.00000
     25       0.7408      0.00000
     26       0.7408      0.00000
     27       0.8747      0.00000
     28       0.8747      0.00000
     29       1.1305      0.00000
     30       1.1305      0.00000
     31       2.0376      0.00000
     32       2.0376      0.00000
     33       2.2581      0.00000
     34       2.2581      0.00000
     35       2.6369      0.00000
     36       2.6369      0.00000
     37       2.7716      0.00000
     38       2.7716      0.00000
     39       3.4313      0.00000
     40       3.4313      0.00000
     41       3.5795      0.00000
     42       3.5795      0.00000
     43       3.7536      0.00000
     44       3.7536      0.00000
     45       3.9344      0.00000
     46       3.9344      0.00000
     47       4.7357      0.00000
     48       4.7357      0.00000

 k-point     5 :       0.0000    0.1053    0.0000
  band No.  band energies     occupation 
      1     -17.6394      1.00000
      2     -17.6394      1.00000
      3     -17.6187      1.00000
      4     -17.6187      1.00000
      5      -7.1955      1.00000
      6      -7.1955      1.00000
      7      -6.5470      1.00000
      8      -6.5470      1.00000
      9      -4.3988      1.00000
     10      -4.3988      1.00000
     11      -4.2714      1.00000
     12      -4.2714      1.00000
     13      -3.7890      1.00000
     14      -3.7890      1.00000
     15      -3.6950      1.00000
     16      -3.6950      1.00000
     17      -3.0729      1.00000
     18      -3.0729      1.00000
     19      -2.0123      1.00000
     20      -2.0123      1.00000
     21      -0.1087      1.00000
     22      -0.1087      1.00000
     23       0.3514      0.00000
     24       0.3514      0.00000
     25       0.7221      0.00000
     26       0.7221      0.00000
     27       0.9343      0.00000
     28       0.9343      0.00000
     29       1.1790      0.00000
     30       1.1790      0.00000
     31       1.9798      0.00000
     32       1.9798      0.00000
     33       2.3278      0.00000
     34       2.3278      0.00000
     35       2.7070      0.00000
     36       2.7070      0.00000
     37       2.9051      0.00000
     38       2.9051      0.00000
     39       3.4886      0.00000
     40       3.4886      0.00000
     41       3.6982      0.00000
     42       3.6982      0.00000
     43       3.8375      0.00000
     44       3.8375      0.00000
     45       4.0425      0.00000
     46       4.0425      0.00000
     47       4.8233      0.00000
     48       4.8233      0.00000

 k-point     6 :       0.0000    0.1316    0.0000
  band No.  band energies     occupation 
      1     -17.6013      1.00000
      2     -17.6013      1.00000
      3     -17.5814      1.00000
      4     -17.5814      1.00000
      5      -7.1012      1.00000
      6      -7.1012      1.00000
      7      -6.4896      1.00000
      8      -6.4896      1.00000
      9      -4.6446      1.00000
     10      -4.6446      1.00000
     11      -4.4999      1.00000
     12      -4.4999      1.00000
     13      -3.8537      1.00000
     14      -3.8537      1.00000
     15      -3.7517      1.00000
     16      -3.7517      1.00000
     17      -3.0363      1.00000
     18      -3.0363      1.00000
     19      -1.9737      1.00000
     20      -1.9737      1.00000
     21      -0.2552      1.00000
     22      -0.2552      1.00000
     23       0.3749      0.00000
     24       0.3749      0.00000
     25       0.7066      0.00000
     26       0.7066      0.00000
     27       0.9964      0.00000
     28       0.9964      0.00000
     29       1.2321      0.00000
     30       1.2321      0.00000
     31       1.9188      0.00000
     32       1.9188      0.00000
     33       2.4127      0.00000
     34       2.4127      0.00000
     35       2.7902      0.00000
     36       2.7902      0.00000
     37       3.0687      0.00000
     38       3.0687      0.00000
     39       3.5802      0.00000
     40       3.5802      0.00000
     41       3.7844      0.00000
     42       3.7844      0.00000
     43       3.9834      0.00000
     44       3.9834      0.00000
     45       4.1842      0.00000
     46       4.1842      0.00000
     47       4.9258      0.00000
     48       4.9258      0.00000

 k-point     7 :       0.0000    0.1579    0.0000
  band No.  band energies     occupation 
      1     -17.5564      1.00000
      2     -17.5564      1.00000
      3     -17.5373      1.00000
      4     -17.5373      1.00000
      5      -6.9916      1.00000
      6      -6.9916      1.00000
      7      -6.4238      1.00000
      8      -6.4238      1.00000
      9      -4.9110      1.00000
     10      -4.9110      1.00000
     11      -4.7556      1.00000
     12      -4.7556      1.00000
     13      -3.9172      1.00000
     14      -3.9172      1.00000
     15      -3.8132      1.00000
     16      -3.8132      1.00000
     17      -3.0051      1.00000
     18      -3.0051      1.00000
     19      -1.9337      1.00000
     20      -1.9337      1.00000
     21      -0.4111      1.00000
     22      -0.4111      1.00000
     23       0.4111      0.00000
     24       0.4111      0.00000
     25       0.7018      0.00000
     26       0.7018      0.00000
     27       1.0467      0.00000
     28       1.0467      0.00000
     29       1.3028      0.00000
     30       1.3028      0.00000
     31       1.8603      0.00000
     32       1.8603      0.00000
     33       2.5103      0.00000
     34       2.5103      0.00000
     35       2.9115      0.00000
     36       2.9115      0.00000
     37       3.2385      0.00000
     38       3.2385      0.00000
     39       3.7030      0.00000
     40       3.7030      0.00000
     41       3.8528      0.00000
     42       3.8528      0.00000
     43       4.1459      0.00000
     44       4.1459      0.00000
     45       4.3547      0.00000
     46       4.3547      0.00000
     47       5.0333      0.00000
     48       5.0333      0.00000

 k-point     8 :       0.0000    0.1842    0.0000
  band No.  band energies     occupation 
      1     -17.5056      1.00000
      2     -17.5056      1.00000
      3     -17.4872      1.00000
      4     -17.4872      1.00000
      5      -6.8706      1.00000
      6      -6.8706      1.00000
      7      -6.3521      1.00000
      8      -6.3521      1.00000
      9      -5.1847      1.00000
     10      -5.1847      1.00000
     11      -5.0278      1.00000
     12      -5.0278      1.00000
     13      -3.9813      1.00000
     14      -3.9813      1.00000
     15      -3.8793      1.00000
     16      -3.8793      1.00000
     17      -2.9766      1.00000
     18      -2.9766      1.00000
     19      -1.8952      1.00000
     20      -1.8952      1.00000
     21      -0.5686      1.00000
     22      -0.5686      1.00000
     23       0.4535      0.00000
     24       0.4535      0.00000
     25       0.7114      0.00000
     26       0.7114      0.00000
     27       1.0816      0.00000
     28       1.0816      0.00000
     29       1.4034      0.00000
     30       1.4034      0.00000
     31       1.8140      0.00000
     32       1.8140      0.00000
     33       2.6195      0.00000
     34       2.6195      0.00000
     35       3.0650      0.00000
     36       3.0650      0.00000
     37       3.4143      0.00000
     38       3.4143      0.00000
     39       3.8374      0.00000
     40       3.8374      0.00000
     41       3.9341      0.00000
     42       3.9341      0.00000
     43       4.3009      0.00000
     44       4.3009      0.00000
     45       4.5150      0.00000
     46       4.5150      0.00000
     47       5.1408      0.00000
     48       5.1408      0.00000

 k-point     9 :       0.0000    0.2105    0.0000
  band No.  band energies     occupation 
      1     -17.4501      1.00000
      2     -17.4501      1.00000
      3     -17.4323      1.00000
      4     -17.4323      1.00000
      5      -6.7442      1.00000
      6      -6.7442      1.00000
      7      -6.2778      1.00000
      8      -6.2778      1.00000
      9      -5.4544      1.00000
     10      -5.4544      1.00000
     11      -5.3063      1.00000
     12      -5.3063      1.00000
     13      -4.0463      1.00000
     14      -4.0463      1.00000
     15      -3.9485      1.00000
     16      -3.9485      1.00000
     17      -2.9483      1.00000
     18      -2.9483      1.00000
     19      -1.8615      1.00000
     20      -1.8615      1.00000
     21      -0.7207      1.00000
     22      -0.7207      1.00000
     23       0.4934      0.00000
     24       0.4934      0.00000
     25       0.7348      0.00000
     26       0.7348      0.00000
     27       1.1154      0.00000
     28       1.1154      0.00000
     29       1.5324      0.00000
     30       1.5324      0.00000
     31       1.7931      0.00000
     32       1.7931      0.00000
     33       2.7397      0.00000
     34       2.7397      0.00000
     35       3.2388      0.00000
     36       3.2388      0.00000
     37       3.5991      0.00000
     38       3.5991      0.00000
     39       3.9337      0.00000
     40       3.9337      0.00000
     41       4.0708      0.00000
     42       4.0708      0.00000
     43       4.4317      0.00000
     44       4.4317      0.00000
     45       4.6301      0.00000
     46       4.6301      0.00000
     47       5.2664      0.00000
     48       5.2664      0.00000

 k-point    10 :       0.0000    0.2368    0.0000
  band No.  band energies     occupation 
      1     -17.3911      1.00000
      2     -17.3911      1.00000
      3     -17.3738      1.00000
      4     -17.3738      1.00000
      5      -6.6224      1.00000
      6      -6.6224      1.00000
      7      -6.2067      1.00000
      8      -6.2067      1.00000
      9      -5.7071      1.00000
     10      -5.7071      1.00000
     11      -5.5802      1.00000
     12      -5.5802      1.00000
     13      -4.1115      1.00000
     14      -4.1115      1.00000
     15      -4.0188      1.00000
     16      -4.0188      1.00000
     17      -2.9174      1.00000
     18      -2.9174      1.00000
     19      -1.8370      1.00000
     20      -1.8370      1.00000
     21      -0.8608      1.00000
     22      -0.8608      1.00000
     23       0.5200      0.00000
     24       0.5200      0.00000
     25       0.7674      0.00000
     26       0.7674      0.00000
     27       1.1686      0.00000
     28       1.1686      0.00000
     29       1.6760      0.00000
     30       1.6760      0.00000
     31       1.8168      0.00000
     32       1.8168      0.00000
     33       2.8708      0.00000
     34       2.8708      0.00000
     35       3.4212      0.00000
     36       3.4212      0.00000
     37       3.7946      0.00000
     38       3.7946      0.00000
     39       3.9995      0.00000
     40       3.9995      0.00000
     41       4.2309      0.00000
     42       4.2309      0.00000
     43       4.4860      0.00000
     44       4.4860      0.00000
     45       4.7511      0.00000
     46       4.7511      0.00000
     47       5.4292      0.00000
     48       5.4292      0.00000

 k-point    11 :       0.0000    0.2632    0.0000
  band No.  band energies     occupation 
      1     -17.3301      1.00000
      2     -17.3301      1.00000
      3     -17.3131      1.00000
      4     -17.3131      1.00000
      5      -6.5288      1.00000
      6      -6.5288      1.00000
      7      -6.1546      1.00000
      8      -6.1546      1.00000
      9      -5.9238      1.00000
     10      -5.9238      1.00000
     11      -5.8240      1.00000
     12      -5.8240      1.00000
     13      -4.1759      1.00000
     14      -4.1759      1.00000
     15      -4.0883      1.00000
     16      -4.0883      1.00000
     17      -2.8814      1.00000
     18      -2.8814      1.00000
     19      -1.8262      1.00000
     20      -1.8262      1.00000
     21      -0.9822      1.00000
     22      -0.9822      1.00000
     23       0.5240      0.00000
     24       0.5240      0.00000
     25       0.8041      0.00000
     26       0.8041      0.00000
     27       1.2571      0.00000
     28       1.2571      0.00000
     29       1.7953      0.00000
     30       1.7953      0.00000
     31       1.9275      0.00000
     32       1.9275      0.00000
     33       3.0128      0.00000
     34       3.0128      0.00000
     35       3.5974      0.00000
     36       3.5974      0.00000
     37       3.9983      0.00000
     38       3.9983      0.00000
     39       4.0574      0.00000
     40       4.0574      0.00000
     41       4.2991      0.00000
     42       4.2991      0.00000
     43       4.5481      0.00000
     44       4.5481      0.00000
     45       4.9162      0.00000
     46       4.9162      0.00000
     47       5.6114      0.00000
     48       5.6114      0.00000

 k-point    12 :       0.0000    0.2895    0.0000
  band No.  band energies     occupation 
      1     -17.2686      1.00000
      2     -17.2686      1.00000
      3     -17.2520      1.00000
      4     -17.2520      1.00000
      5      -6.5247      1.00000
      6      -6.5247      1.00000
      7      -6.1934      1.00000
      8      -6.1934      1.00000
      9      -6.0805      1.00000
     10      -6.0805      1.00000
     11      -5.9252      1.00000
     12      -5.9252      1.00000
     13      -4.2383      1.00000
     14      -4.2383      1.00000
     15      -4.1548      1.00000
     16      -4.1548      1.00000
     17      -2.8376      1.00000
     18      -2.8376      1.00000
     19      -1.8328      1.00000
     20      -1.8328      1.00000
     21      -1.0804      1.00000
     22      -1.0804      1.00000
     23       0.5035      0.00000
     24       0.5035      0.00000
     25       0.8418      0.00000
     26       0.8418      0.00000
     27       1.3859      0.00000
     28       1.3859      0.00000
     29       1.9011      0.00000
     30       1.9011      0.00000
     31       2.1144      0.00000
     32       2.1144      0.00000
     33       3.1651      0.00000
     34       3.1651      0.00000
     35       3.7377      0.00000
     36       3.7377      0.00000
     37       4.1127      0.00000
     38       4.1127      0.00000
     39       4.1692      0.00000
     40       4.1692      0.00000
     41       4.2994      0.00000
     42       4.2994      0.00000
     43       4.6967      0.00000
     44       4.6967      0.00000
     45       5.1037      0.00000
     46       5.1037      0.00000
     47       5.7570      0.00000
     48       5.7571      0.00000

 k-point    13 :       0.0000    0.3158    0.0000
  band No.  band energies     occupation 
      1     -17.2082      1.00000
      2     -17.2082      1.00000
      3     -17.1922      1.00000
      4     -17.1922      1.00000
      5      -6.6433      1.00000
      6      -6.6433      1.00000
      7      -6.4018      1.00000
      8      -6.4018      1.00000
      9      -6.0548      1.00000
     10      -6.0548      1.00000
     11      -5.8923      1.00000
     12      -5.8923      1.00000
     13      -4.2975      1.00000
     14      -4.2975      1.00000
     15      -4.2165      1.00000
     16      -4.2165      1.00000
     17      -2.7842      1.00000
     18      -2.7842      1.00000
     19      -1.8563      1.00000
     20      -1.8563      1.00000
     21      -1.1552      1.00000
     22      -1.1552      1.00000
     23       0.4647      0.00000
     24       0.4647      0.00000
     25       0.8776      0.00000
     26       0.8776      0.00000
     27       1.5512      0.00000
     28       1.5512      0.00000
     29       2.0363      0.00000
     30       2.0363      0.00000
     31       2.3307      0.00000
     32       2.3307      0.00000
     33       3.3256      0.00000
     34       3.3256      0.00000
     35       3.7882      0.00000
     36       3.7882      0.00000
     37       4.1722      0.00000
     38       4.1722      0.00000
     39       4.1927      0.00000
     40       4.1927      0.00000
     41       4.4902      0.00000
     42       4.4902      0.00000
     43       4.8302      0.00000
     44       4.8302      0.00000
     45       5.3108      0.00000
     46       5.3108      0.00000
     47       5.7853      0.00000
     48       5.7854      0.00000

 k-point    14 :       0.0000    0.3421    0.0000
  band No.  band energies     occupation 
      1     -17.1506      1.00000
      2     -17.1506      1.00000
      3     -17.1355      1.00000
      4     -17.1355      1.00000
      5      -6.8070      1.00000
      6      -6.8070      1.00000
      7      -6.6180      1.00000
      8      -6.6180      1.00000
      9      -5.9772      1.00000
     10      -5.9772      1.00000
     11      -5.8324      1.00000
[...]
  0.000   0.000   0.000   0.000   0.000   0.000   0.000   0.000   0.000   0.000   0.000   0.000   0.000   0.000   0.000   0.000
  0.000   0.000   0.000   0.000   0.000   0.000   0.000   0.000   0.000   0.000   0.000   0.000   0.000   0.000   0.000   0.000
  0.000   0.000   0.000   0.000   0.000   0.000   0.000   0.000   0.000   0.000   0.000   0.000   0.000   0.000   0.000   0.000
  0.000   0.000   0.000   0.000   0.000   0.000   0.000   0.000   0.000   0.000   0.000   0.000   0.000   0.000   0.000   0.000
  0.000   0.000   0.000   0.000   0.000   0.000   0.000   0.000   0.000   0.000   0.000   0.000   0.000   0.000   0.000   0.000
  0.000   0.000   0.000   0.000   0.000   0.000   0.000   0.000   0.000   0.000   0.000   0.000   0.000   0.000   0.000   0.000
  0.000   0.000   0.000   0.000   0.000   0.000   0.000   0.000   0.000   0.000   0.000   0.000   0.000   0.000   0.000   0.000
  0.000   0.000   0.000   0.000   0.000   0.000   0.000   0.000   0.000   0.000   0.000   0.000   0.000   0.000   0.000   0.000
  0.000   0.000   0.000   0.000   0.000   0.000   0.000   0.000   0.000   0.000   0.000   0.000   0.000   0.000   0.000   0.000
  0.000   0.000   0.000   0.000   0.000   0.000   0.000   0.000   0.000   0.000   0.000   0.000   0.000   0.000   0.000   0.000
  0.000   0.000   0.000   0.000   0.000   0.000   0.000   0.000   0.000   0.000   0.000   0.000   0.000   0.000   0.000   0.000
 total augmentation occupancy for first ion, spin component:           3
  0.000   0.000   0.000   0.000   0.000   0.000   0.000   0.000   0.000   0.000   0.000   0.000   0.000   0.000   0.000   0.000
  0.000   0.000   0.000   0.000   0.000   0.000   0.000   0.000   0.000   0.000   0.000   0.000   0.000   0.000   0.000   0.000
  0.000   0.000   0.000   0.000   0.000   0.000   0.000   0.000   0.000   0.000   0.000   0.000   0.000   0.000   0.000   0.000
  0.000   0.000   0.000   0.000   0.000   0.000   0.000   0.000   0.000   0.000   0.000   0.000   0.000   0.000   0.000   0.000
  0.000   0.000   0.000   0.000   0.000   0.000   0.000   0.000   0.000   0.000   0.000   0.000   0.000   0.000   0.000   0.000
  0.000   0.000   0.000   0.000   0.000   0.000   0.000   0.000   0.000   0.000   0.000   0.000   0.000   0.000   0.000   0.000
  0.000   0.000   0.000   0.000   0.000   0.000   0.000   0.000   0.000   0.000   0.000   0.000   0.000   0.000   0.000   0.000
  0.000   0.000   0.000   0.000   0.000   0.000   0.000   0.000   0.000   0.000   0.000   0.000   0.000   0.000   0.000   0.000
  0.000   0.000   0.000   0.000   0.000   0.000   0.000   0.000   0.000   0.000   0.000   0.000   0.000   0.000   0.000   0.000
  0.000   0.000   0.000   0.000   0.000   0.000   0.000   0.000   0.000   0.000   0.000   0.000   0.000   0.000   0.000   0.000
  0.000   0.000   0.000   0.000   0.000   0.000   0.000   0.000   0.000   0.000   0.000   0.000   0.000   0.000   0.000   0.000
  0.000   0.000   0.000   0.000   0.000   0.000   0.000   0.000   0.000   0.000   0.000   0.000   0.000   0.000   0.000   0.000
  0.000   0.000   0.000   0.000   0.000   0.000   0.000   0.000   0.000   0.000   0.000   0.000   0.000   0.000   0.000   0.000
  0.000   0.000   0.000   0.000   0.000   0.000   0.000   0.000   0.000   0.000   0.000   0.000   0.000   0.000   0.000   0.000
  0.000   0.000   0.000   0.000   0.000   0.000   0.000   0.000   0.000   0.000   0.000   0.000   0.000   0.000   0.000   0.000
  0.000   0.000   0.000   0.000   0.000   0.000   0.000   0.000   0.000   0.000   0.000   0.000   0.000   0.000   0.000   0.000
  0.000   0.000   0.000   0.000   0.000   0.000   0.000   0.000   0.000   0.000   0.000   0.000   0.000   0.000   0.000   0.000
  0.000   0.000   0.000   0.000   0.000   0.000   0.000   0.000   0.000   0.000   0.000   0.000   0.000   0.000   0.000   0.000
 total augmentation occupancy for first ion, spin component:           4
  0.000   0.000   0.000   0.000   0.000   0.000   0.000   0.000   0.000   0.000   0.000   0.000   0.000   0.000   0.000   0.000
  0.000   0.000   0.000   0.000   0.000   0.000   0.000   0.000   0.000   0.000   0.000   0.000   0.000   0.000   0.000   0.000
  0.000   0.000   0.000   0.000   0.000   0.000   0.000   0.000   0.000   0.000   0.000   0.000   0.000   0.000   0.000   0.000
  0.000   0.000   0.000   0.000   0.000   0.000   0.000   0.000   0.000   0.000   0.000   0.000   0.000   0.000   0.000   0.000
  0.000   0.000   0.000   0.000   0.000   0.000   0.000   0.000   0.000   0.000   0.000   0.000   0.000   0.000   0.000   0.000
  0.000   0.000   0.000   0.000   0.000   0.000   0.000   0.000   0.000   0.000   0.000   0.000   0.000   0.000   0.000   0.000
  0.000   0.000   0.000   0.000   0.000   0.000   0.000   0.000   0.000   0.000   0.000   0.000   0.000   0.000   0.000   0.000
  0.000   0.000   0.000   0.000   0.000   0.000   0.000   0.000   0.000   0.000   0.000   0.000   0.000   0.000   0.000   0.000
  0.000   0.000   0.000   0.000   0.000   0.000   0.000   0.000   0.000   0.000   0.000   0.000   0.000   0.000   0.000   0.000
  0.000   0.000   0.000   0.000   0.000   0.000   0.000   0.000   0.000   0.000   0.000   0.000   0.000   0.000   0.000   0.000
  0.000   0.000   0.000   0.000   0.000   0.000   0.000   0.000   0.000   0.000   0.000   0.000   0.000   0.000   0.000   0.000
  0.000   0.000   0.000   0.000   0.000   0.000   0.000   0.000   0.000   0.000   0.000   0.000   0.000   0.000   0.000   0.000
  0.000   0.000   0.000   0.000   0.000   0.000   0.000   0.000   0.000   0.000   0.000   0.000   0.000   0.000   0.000   0.000
  0.000   0.000   0.000   0.000   0.000   0.000   0.000   0.000   0.000   0.000   0.000   0.000   0.000   0.000   0.000   0.000
  0.000   0.000   0.000   0.000   0.000   0.000   0.000   0.000   0.000   0.000   0.000   0.000   0.000   0.000   0.000   0.000
  0.000   0.000   0.000   0.000   0.000   0.000   0.000   0.000   0.000   0.000   0.000   0.000   0.000   0.000   0.000   0.000
  0.000   0.000   0.000   0.000   0.000   0.000   0.000   0.000   0.000   0.000   0.000   0.000   0.000   0.000   0.000   0.000
  0.000   0.000   0.000   0.000   0.000   0.000   0.000   0.000   0.000   0.000   0.000   0.000   0.000   0.000   0.000   0.000


------------------------ aborting loop because EDIFF is reached ----------------------------------------





 total charge

# of ion       s       p       d       tot
------------------------------------------
    1        0.514   0.488   1.927   2.929
    2        0.514   0.488   1.927   2.929
    3        1.608   3.288   0.031   4.928
    4        1.608   3.288   0.031   4.928
--------------------------------------------------
tot          4.245   7.553   3.917  15.714



 magnetization (x)

# of ion       s       p       d       tot
------------------------------------------
    1        0.000  -0.000   0.000   0.000
    2        0.000  -0.000   0.000   0.000
    3        0.000  -0.000  -0.000  -0.000
    4        0.000  -0.000  -0.000  -0.000
--------------------------------------------------
tot          0.000  -0.000   0.000   0.000



 magnetization (y)

# of ion       s       p       d       tot
------------------------------------------
    1        0.000  -0.000   0.000   0.000
    2        0.000   0.000   0.000   0.000
    3        0.000   0.000   0.000   0.000
    4        0.000   0.000   0.000   0.000
--------------------------------------------------
tot          0.000  -0.000   0.000   0.000



 magnetization (z)

# of ion       s       p       d       tot
------------------------------------------
    1        0.000   0.000   0.000   0.000
    2        0.000   0.000   0.000   0.000
    3        0.000   0.000   0.000   0.000
    4        0.000   0.000   0.000   0.000
--------------------------------------------------
tot          0.000   0.000   0.000   0.000
 
    CHARGE:  cpu time      0.1495: real time      0.1507
    FORLOC:  cpu time      0.0003: real time      0.0003
    FORNL :  cpu time      0.0808: real time      0.0815
    STRESS:  cpu time      1.1862: real time      1.1983
    FORCOR:  cpu time      0.0170: real time      0.0174
    FORHAR:  cpu time      0.0016: real time      0.0017
    OFIELD:  cpu time      0.0000: real time      0.0000

  FORCE on cell =-STRESS in cart. coord.  units (eV):
  Direction    XX          YY          ZZ          XY          YZ          ZX
  --------------------------------------------------------------------------------------
  Alpha Z    25.72769    25.72769    25.72769
  Ewald    3115.25330  3115.25330 -3716.99574     0.00000     0.00000     0.00000
  Hartree  3291.13853  3291.13853 -3232.40492    -0.00000     0.00000    -0.00000
  E(xc)     -83.85817   -83.85816   -84.20314    -0.00000     0.00000    -0.00000
  Local   -6717.62094 -6717.62120  6643.54089     0.00000    -0.00000    -0.00000
  n-local   100.20644   105.94087   106.92095    -3.24435     0.67920     0.82897
  augment    -9.19082    -9.19065    -9.34385    -0.00000     0.00000    -0.00000
  Kinetic   275.03954   279.52690   266.62651    -3.13048    -2.36118    -1.31254
  Fock        0.00000     0.00000     0.00000     0.00000     0.00000     0.00000
  -------------------------------------------------------------------------------------
  Total       1.80642     1.80642    -0.13162    -0.00000     0.00000     0.00000
  in kB      11.45537    11.45537    -0.83463    -0.00000     0.00000     0.00000
  external pressure =        7.36 kB  Pullay stress =        0.00 kB


 VOLUME and BASIS-vectors are now :
 -----------------------------------------------------------------------------
  energy-cutoff  :      286.00
  volume of cell :      252.65
      direct lattice vectors                 reciprocal lattice vectors
     1.740179471 -3.014079258  0.000000000     0.287326686 -0.165888139  0.000000000
     1.740179471  3.014079258  0.000000000     0.287326686  0.165888139  0.000000000
     0.000000000  0.000000000 24.084739707     0.000000000  0.000000000  0.041520067

  length of vectors
     3.480358942  3.480358942 24.084739707     0.331776279  0.331776279  0.041520067


 FORCES acting on ions
    electron-ion (+dipol)            ewald-force                    non-local-force                 convergence-correction
 -----------------------------------------------------------------------------------------------
   0.836E-09 0.366E-07 0.794E+02   0.363E-14 0.137E-08 -.754E+02   -.252E-17 0.181E-16 -.382E+01   0.198E-14 -.117E-04 0.353E-01
   -.836E-09 -.366E-07 -.794E+02   -.245E-14 -.137E-08 0.754E+02   0.216E-16 0.280E-16 0.382E+01   0.159E-14 0.117E-04 -.353E-01
   0.134E-07 -.400E-06 0.556E+03   0.112E-13 -.918E-09 -.558E+03   0.262E-17 0.178E-17 0.121E+01   0.753E-14 0.777E-05 0.484E+00
   -.134E-07 0.400E-06 -.556E+03   0.135E-13 0.918E-09 0.558E+03   0.249E-17 0.563E-17 -.121E+01   0.538E-14 -.777E-05 -.484E+00
 -----------------------------------------------------------------------------------------------
   0.330E-13 -.244E-13 0.111E-11   0.259E-13 -.671E-14 0.000E+00   0.242E-16 0.535E-16 0.000E+00   0.165E-13 0.266E-14 -.105E-11
 
 
 POSITION                                       TOTAL-FORCE (eV/Angst)
 -----------------------------------------------------------------------------------
      1.74018      1.00469     22.95267        -0.000000     -0.000000      0.213039
      1.74018     -1.00469      1.13207        -0.000000      0.000000     -0.213039
      0.00000      0.00000     21.04554         0.000000      0.000000     -0.023185
      0.00000      0.00000      3.03920         0.000000      0.000000      0.023185
 -----------------------------------------------------------------------------------
    total drift:                                0.000000     -0.000000      0.000000


--------------------------------------------------------------------------------------------------------



  FREE ENERGIE OF THE ION-ELECTRON SYSTEM (eV)
  ---------------------------------------------------
  free  energy   TOTEN  =       -26.59537343 eV

  energy  without entropy=      -26.59536000  energy(sigma->0) =      -26.59536671
 


--------------------------------------------------------------------------------------------------------


    POTLOK:  cpu time      0.0276: real time      0.0279


--------------------------------------------------------------------------------------------------------


     LOOP+:  cpu time     31.8595: real time     32.1749
    4ORBIT:  cpu time      0.0000: real time      0.0000

 Spin-Orbit-Coupling matrix elements

 Ion:    1  E_soc:     -0.1821888
 l=   1
     0.0000000    -0.0185887    -0.0184416
    -0.0185887     0.0000000    -0.0185887
    -0.0184416    -0.0185887     0.0000000
 l=   2
     0.0000000    -0.0019926     0.0000000    -0.0019926    -0.0171391
    -0.0019926     0.0000000    -0.0048706    -0.0006245    -0.0019926
     0.0000000    -0.0048706     0.0000000    -0.0048706     0.0000000
    -0.0019926    -0.0006245    -0.0048706     0.0000000    -0.0019926
    -0.0171391    -0.0019926     0.0000000    -0.0019926     0.0000000
 l=   3
     0.0000000     0.0000000     0.0000000     0.0000000     0.0000000     0.0000000     0.0000000
     0.0000000     0.0000000     0.0000000     0.0000000     0.0000000     0.0000000     0.0000000
     0.0000000     0.0000000     0.0000000     0.0000000     0.0000000     0.0000000     0.0000000
     0.0000000     0.0000000     0.0000000     0.0000000     0.0000000     0.0000000     0.0000000
     0.0000000     0.0000000     0.0000000     0.0000000     0.0000000     0.0000000     0.0000000
     0.0000000     0.0000000     0.0000000     0.0000000     0.0000000     0.0000000     0.0000000
     0.0000000     0.0000000     0.0000000     0.0000000     0.0000000     0.0000000     0.0000000

 Ion:    2  E_soc:     -0.1821888
 l=   1
     0.0000000    -0.0185887    -0.0184416
    -0.0185887     0.0000000    -0.0185887
    -0.0184416    -0.0185887     0.0000000
 l=   2
     0.0000000    -0.0019926     0.0000000    -0.0019926    -0.0171391
    -0.0019926     0.0000000    -0.0048706    -0.0006245    -0.0019926
     0.0000000    -0.0048706     0.0000000    -0.0048706     0.0000000
    -0.0019926    -0.0006245    -0.0048706     0.0000000    -0.0019926
    -0.0171391    -0.0019926     0.0000000    -0.0019926     0.0000000
 l=   3
     0.0000000     0.0000000     0.0000000     0.0000000     0.0000000     0.0000000     0.0000000
     0.0000000     0.0000000     0.0000000     0.0000000     0.0000000     0.0000000     0.0000000
     0.0000000     0.0000000     0.0000000     0.0000000     0.0000000     0.0000000     0.0000000
     0.0000000     0.0000000     0.0000000     0.0000000     0.0000000     0.0000000     0.0000000
     0.0000000     0.0000000     0.0000000     0.0000000     0.0000000     0.0000000     0.0000000
     0.0000000     0.0000000     0.0000000     0.0000000     0.0000000     0.0000000     0.0000000
     0.0000000     0.0000000     0.0000000     0.0000000     0.0000000     0.0000000     0.0000000

 Ion:    3  E_soc:     -0.0549458
 l=   1
     0.0000000    -0.0093686    -0.0087540
    -0.0093686     0.0000000    -0.0093686
    -0.0087540    -0.0093686     0.0000000
 l=   2
     0.0000000     0.0000036     0.0000000     0.0000036    -0.0000131
     0.0000036     0.0000000     0.0000033     0.0000101     0.0000036
     0.0000000     0.0000033     0.0000000     0.0000033     0.0000000
     0.0000036     0.0000101     0.0000033     0.0000000     0.0000036
    -0.0000131     0.0000036     0.0000000     0.0000036     0.0000000
 l=   3
     0.0000000     0.0000000     0.0000000     0.0000000     0.0000000     0.0000000     0.0000000
     0.0000000     0.0000000     0.0000000     0.0000000     0.0000000     0.0000000     0.0000000
     0.0000000     0.0000000     0.0000000     0.0000000     0.0000000     0.0000000     0.0000000
     0.0000000     0.0000000     0.0000000     0.0000000     0.0000000     0.0000000     0.0000000
     0.0000000     0.0000000     0.0000000     0.0000000     0.0000000     0.0000000     0.0000000
     0.0000000     0.0000000     0.0000000     0.0000000     0.0000000     0.0000000     0.0000000
     0.0000000     0.0000000     0.0000000     0.0000000     0.0000000     0.0000000     0.0000000

 Ion:    4  E_soc:     -0.0549458
 l=   1
     0.0000000    -0.0093686    -0.0087540
    -0.0093686     0.0000000    -0.0093686
    -0.0087540    -0.0093686     0.0000000
 l=   2
     0.0000000     0.0000036     0.0000000     0.0000036    -0.0000131
     0.0000036     0.0000000     0.0000033     0.0000101     0.0000036
     0.0000000     0.0000033     0.0000000     0.0000033     0.0000000
     0.0000036     0.0000101     0.0000033     0.0000000     0.0000036
    -0.0000131     0.0000036     0.0000000     0.0000036     0.0000000
 l=   3
     0.0000000     0.0000000     0.0000000     0.0000000     0.0000000     0.0000000     0.0000000
     0.0000000     0.0000000     0.0000000     0.0000000     0.0000000     0.0000000     0.0000000
     0.0000000     0.0000000     0.0000000     0.0000000     0.0000000     0.0000000     0.0000000
     0.0000000     0.0000000     0.0000000     0.0000000     0.0000000     0.0000000     0.0000000
     0.0000000     0.0000000     0.0000000     0.0000000     0.0000000     0.0000000     0.0000000
     0.0000000     0.0000000     0.0000000     0.0000000     0.0000000     0.0000000     0.0000000
     0.0000000     0.0000000     0.0000000     0.0000000     0.0000000     0.0000000     0.0000000



 total charge

# of ion       s       p       d       tot
------------------------------------------
    1        0.514   0.488   1.927   2.929
    2        0.514   0.488   1.927   2.929
    3        1.608   3.288   0.031   4.928
    4        1.608   3.288   0.031   4.928
--------------------------------------------------
tot          4.245   7.553   3.917  15.714



 magnetization (x)

# of ion       s       p       d       tot
------------------------------------------
    1        0.000  -0.000   0.000   0.000
    2        0.000  -0.000   0.000   0.000
    3        0.000  -0.000  -0.000  -0.000
    4        0.000  -0.000  -0.000  -0.000
--------------------------------------------------
tot          0.000  -0.000   0.000   0.000



 magnetization (y)

# of ion       s       p       d       tot
------------------------------------------
    1        0.000  -0.000   0.000   0.000
    2        0.000   0.000   0.000   0.000
    3        0.000   0.000   0.000   0.000
    4        0.000   0.000   0.000   0.000
--------------------------------------------------
tot          0.000  -0.000   0.000   0.000



 magnetization (z)

# of ion       s       p       d       tot
------------------------------------------
    1        0.000   0.000   0.000   0.000
    2        0.000   0.000   0.000   0.000
    3        0.000   0.000   0.000   0.000
    4        0.000   0.000   0.000   0.000
--------------------------------------------------
tot          0.000   0.000   0.000   0.000
 

 total amount of memory used by VASP MPI-rank0    95255. kBytes
=======================================================================

   base      :      30000. kBytes
   nonl-proj :      49118. kBytes
   fftplans  :       1027. kBytes
   grid      :       9241. kBytes
   one-center:        248. kBytes
   wavefun   :       5621. kBytes
 
  
  
 General timing and accounting informations for this job:
 ========================================================
  
                  Total CPU time used (sec):       34.651
                            User time (sec):       33.583
                          System time (sec):        1.068
                         Elapsed time (sec):       36.193
  
                   Maximum memory used (kb):      424944.
                   Average memory used (kb):          N/A
  
                          Minor page faults:        84248
                          Major page faults:            0
                 Voluntary context switches:         3787
