 vasp.6.4.3 19Mar24 (build May 24 2024 16:49:02) complex                        
  
 executed on             LinuxIFC date 2024.05.27  15:56:43
 running   24 mpi-ranks, on    1 nodes
 distrk:  each k-point on   12 cores,    2 groups
 distr:  one band on NCORE=   2 cores,    6 groups


--------------------------------------------------------------------------------------------------------


 INCAR:
   SYSTEM = In2Bi2 ML
   ISTART = 0
   ICHARG = 11
   ENCUT = 150 eV
   ALGO = Normal
   NELM = 80
   EDIFF = 1E-06
   SIGMA = 0.01
   ISMEAR = 0
   LORBIT = 11
   LREAL = .False.
   PREC = High
   ISYM = 2
   NELMIN = 6
   LSORBIT = .True.
   LWAVE = .False.
   LCHARG = .False.
   LNONCOLLINEAR = .True.
   MAGMOM = 12*0
   IBRION = -1
   NSW = 0
   KPAR = 2
   NCORE = 2

 POTCAR:    PAW_PBE Bi 08Apr2002                  
 -----------------------------------------------------------------------------
|                                                                             |
|           W    W    AA    RRRRR   N    N  II  N    N   GGGG   !!!           |
|           W    W   A  A   R    R  NN   N  II  NN   N  G    G  !!!           |
|           W    W  A    A  R    R  N N  N  II  N N  N  G       !!!           |
|           W WW W  AAAAAA  RRRRR   N  N N  II  N  N N  G  GGG   !            |
|           WW  WW  A    A  R   R   N   NN  II  N   NN  G    G                |
|           W    W  A    A  R    R  N    N  II  N    N   GGGG   !!!           |
|                                                                             |
|     For optimal performance we recommend to set                             |
|       NCORE = 2 up to number-of-cores-per-socket                            |
|     NCORE specifies how many cores store one orbital (NPAR=cpu/NCORE).      |
|     This setting can greatly improve the performance of VASP for DFT.       |
|     The default, NCORE=1 might be grossly inefficient on modern             |
|     multi-core architectures or massively parallel machines. Do your        |
|     own testing! More info at https://www.vasp.at/wiki/index.php/NCORE      |
|     Unfortunately you need to use the default for GW and RPA                |
|     calculations (for HF NCORE is supported but not extensively tested      |
|     yet).                                                                   |
|                                                                             |
 -----------------------------------------------------------------------------

 POTCAR:    PAW_PBE Bi 08Apr2002                  
   SHA256 =  d6b6753ed5db3f0e277fb15e6dbb6699c4bc829850a481068e9e7236faeca489 Bi/POTCAR             
   COPYR  = (c) Copyright 08Apr2002 Georg Kresse                                                    
   COPYR  = This file is part of the software VASP. Any use, copying, and all other rights are regul
   COPYR  = If you do not have a valid VASP license, you may not use, copy or distribute this file. 
   VRHFIN =Bi:                                                                                      
   LEXCH  = PE                                                                                      
   EATOM  =   150.8133 eV,   11.0845 Ry                                                             
                                                                                                    
   TITEL  = PAW_PBE Bi 08Apr2002                                                                    
   LULTRA =        F    use ultrasoft PP ?                                                          
   IUNSCR =        1    unscreen: 0-lin 1-nonlin 2-no                                               
   RPACOR =    2.200    partial core radius                                                         
   POMASS =  208.980; ZVAL   =    5.000    mass and valenz                                          
   RCORE  =    3.000    outmost cutoff radius                                                       
   RWIGS  =    3.090; RWIGS  =    1.635    wigner-seitz radius (au A)                               
   ENMAX  =  105.037; ENMIN  =   78.777 eV                                                          
   ICORE  =        3    local potential                                                             
   LCOR   =        T    correct aug charges                                                         
   LPAW   =        T    paw PP                                                                      
   EAUG   =  265.427                                                                                
   DEXC   =    0.000                                                                                
   RMAX   =    3.067    core radius for proj-oper                                                   
   RAUG   =    1.300    factor for augmentation sphere                                              
   RDEP   =    3.012    radius for radial grids                                                     
   RDEPT  =    2.604    core radius for aug-charge                                                  
                                                                                                    
   Atomic configuration                                                                             
   17 entries                                                                                       
     n  l   j            E        occ.                                                              
     1  0  0.50    -90639.6582   2.0000                                                             
     2  0  0.50    -16282.4667   2.0000                                                             
     2  1  1.50    -13922.8287   6.0000                                                             
     3  0  0.50     -3930.4763   2.0000                                                             
     3  1  1.50     -3256.7013   6.0000                                                             
     3  2  2.50     -2581.6169  10.0000                                                             
     4  0  0.50      -902.2614   2.0000                                                             
     4  1  1.50      -681.5915   6.0000                                                             
     4  2  2.50      -429.8249  10.0000                                                             
     4  3  3.50      -152.6004  14.0000                                                             
     5  0  0.50      -157.7156   2.0000                                                             
     5  1  1.50       -95.8054   6.0000                                                             
     5  2  2.50       -27.0806  10.0000                                                             
     6  0  0.50       -14.4732   2.0000                                                             
     6  1  1.50        -4.5702   3.0000                                                             
     6  2  2.50        -2.7212   0.0000                                                             
     5  3  2.50        -2.7212   0.0000                                                             
   Description                                                                                      
     l       E           TYP  RCUT    TYP  RCUT                                                     
     0    -14.4732299     23  3.000                                                                 
     0    -12.2452434     23  3.000                                                                 
     1     -4.5701666     23  3.000                                                                 
     1    -13.6058260     23  3.000                                                                 
     2     -2.7211652     23  3.000                                                                 
     3     -1.3605826      7  3.000                                                                 
  local pseudopotential read in
  partial core-charges read in
  partial kinetic energy density read in
  kinetic energy density of atom read in
  atomic valenz-charges read in
  non local Contribution for L=           0  read in
    real space projection operators read in
  non local Contribution for L=           0  read in
    real space projection operators read in
  non local Contribution for L=           1  read in
    real space projection operators read in
  non local Contribution for L=           1  read in
    real space projection operators read in
  non local Contribution for L=           2  read in
    real space projection operators read in
    PAW grid and wavefunctions read in
 
   number of l-projection  operators is LMAX  =           5
   number of lm-projection operators is LMMAX =          13
 
  PAW_PBE Bi 08Apr2002                  :
 energy of atom  1       EATOM= -150.8133
 kinetic energy error for atom=    0.0023 (will be added to EATOM!!)
 
 
 POSCAR: Bi
  positions in direct lattice
  velocities in cartesian coordinates


 exchange-correlation table for PE
   RHO(1)=    0.500       N(1)  =     2000
   RHO(2)=  100.500       N(2)  =     4000
 


--------------------------------------------------------------------------------------------------------


 ion  position               nearest neighbor table
   1  0.000  0.000  0.054-   4 3.09   3 3.12   3 3.12   3 3.66   3 3.66
   2  0.500  0.500  0.946-   3 3.09   4 3.12   4 3.12   4 3.66   4 3.66
   3  0.500  0.424  0.074-   2 3.09   1 3.12   1 3.12   1 3.66   1 3.66
   4  0.000  0.924  0.926-   1 3.09   2 3.12   2 3.12   2 3.66   2 3.66
 
  LATTYP: Found a simple orthorhombic cell.
 ALAT       =     4.5600000000
 B/A-ratio  =     1.0723684211
 C/A-ratio  =     5.2428407661
  
  Lattice vectors:
  
 A1 = (   4.5600000000,   0.0000000000,   0.0000000000)
 A2 = (   0.0000000000,   4.8900000000,   0.0000000000)
 A3 = (   0.0000000000,   0.0000000000,  23.9073538933)


Analysis of symmetry for initial positions (statically):
=====================================================================
 Subroutine PRICEL returns:
 Original cell was already a primitive cell.
 

 Routine SETGRP: Setting up the symmetry group for a 
 simple orthorhombic supercell.


 Subroutine GETGRP returns: Found  4 space group operations
 (whereof  2 operations were pure point group operations)
 out of a pool of  8 trial point group operations.


The static configuration has the point symmetry C_1h.
 The point group associated with its full space group is C_2v.


Analysis of symmetry for dynamics (positions and initial velocities):
=====================================================================
 Subroutine PRICEL returns:
 Original cell was already a primitive cell.
 

 Routine SETGRP: Setting up the symmetry group for a 
 simple orthorhombic supercell.


 Subroutine GETGRP returns: Found  4 space group operations
 (whereof  2 operations were pure point group operations)
 out of a pool of  8 trial point group operations.


The dynamic configuration has the point symmetry C_1h.
 The point group associated with its full space group is C_2v.


Analysis of structural, dynamic, and magnetic symmetry:
=====================================================================
 Subroutine PRICEL returns:
 Original cell was already a primitive cell.
 

 Routine SETGRP: Setting up the symmetry group for a 
 simple orthorhombic supercell.


 Subroutine GETGRP returns: Found  4 space group operations
 (whereof  2 operations were pure point group operations)
 out of a pool of  8 trial point group operations.


The overall configuration has the point symmetry C_1h.
 The point group associated with its full space group is C_2v.


 Subroutine INISYM returns: Found  4 space group operations
 (whereof  2 operations are pure point group operations),
 and found     1 'primitive' translations


----------------------------------------------------------------------------------------

                                     Primitive cell                                     

  volume of cell :     533.0957

  direct lattice vectors                    reciprocal lattice vectors
     4.560000000  0.000000000  0.000000000     0.219298246  0.000000000  0.000000000
     0.000000000  4.890000000  0.000000000     0.000000000  0.204498978  0.000000000
     0.000000000  0.000000000 23.907353893     0.000000000  0.000000000  0.041828134

  length of vectors
     4.560000000  4.890000000 23.907353893     0.219298246  0.204498978  0.041828134

  position of ions in fractional coordinates (direct lattice)
     0.000000000  0.000196621  0.053991059
     0.500000000  0.500196621  0.946008941
     0.500000000  0.423603379  0.074351481
     0.000000000  0.923603379  0.925648519

  ion indices of the primitive-cell ions
   primitive index   ion index
                 1           1
                 2           2
                 3           3
                 4           4

----------------------------------------------------------------------------------------

 
 
 KPOINTS: k-points along high symm kpt            

Interpolating k-points between supplied coordinates.

 Line segments in fractional coordinates (reciprocal lattice):
    0.000000  0.500000  0.000000  ...  0.500000  0.500000  0.000000
    0.500000  0.500000  0.000000  ...  0.500000  0.000000  0.000000
    0.500000  0.000000  0.000000  ...  0.000000  0.000000  0.000000
    0.000000  0.000000  0.000000  ...  0.000000  0.500000  0.000000

 Generated    40 points on each line segment, for a total of    160 k-points:

 Following reciprocal coordinates:
            Coordinates               Weight
  0.000000  0.500000  0.000000      0.006250
  0.012821  0.500000  0.000000      0.006250
  0.025641  0.500000  0.000000      0.006250
  0.038462  0.500000  0.000000      0.006250
  0.051282  0.500000  0.000000      0.006250
  0.064103  0.500000  0.000000      0.006250
  0.076923  0.500000  0.000000      0.006250
  0.089744  0.500000  0.000000      0.006250
  0.102564  0.500000  0.000000      0.006250
  0.115385  0.500000  0.000000      0.006250
  0.128205  0.500000  0.000000      0.006250
  0.141026  0.500000  0.000000      0.006250
  0.153846  0.500000  0.000000      0.006250
  0.166667  0.500000  0.000000      0.006250
  0.179487  0.500000  0.000000      0.006250
  0.192308  0.500000  0.000000      0.006250
  0.205128  0.500000  0.000000      0.006250
  0.217949  0.500000  0.000000      0.006250
  0.230769  0.500000  0.000000      0.006250
  0.243590  0.500000  0.000000      0.006250
  0.256410  0.500000  0.000000      0.006250
  0.269231  0.500000  0.000000      0.006250
  0.282051  0.500000  0.000000      0.006250
  0.294872  0.500000  0.000000      0.006250
  0.307692  0.500000  0.000000      0.006250
  0.320513  0.500000  0.000000      0.006250
  0.333333  0.500000  0.000000      0.006250
  0.346154  0.500000  0.000000      0.006250
  0.358974  0.500000  0.000000      0.006250
  0.371795  0.500000  0.000000      0.006250
  0.384615  0.500000  0.000000      0.006250
  0.397436  0.500000  0.000000      0.006250
  0.410256  0.500000  0.000000      0.006250
  0.423077  0.500000  0.000000      0.006250
  0.435897  0.500000  0.000000      0.006250
  0.448718  0.500000  0.000000      0.006250
  0.461538  0.500000  0.000000      0.006250
  0.474359  0.500000  0.000000      0.006250
  0.487179  0.500000  0.000000      0.006250
  0.500000  0.500000  0.000000      0.006250
  0.500000  0.500000  0.000000      0.006250
  0.500000  0.487179  0.000000      0.006250
  0.500000  0.474359  0.000000      0.006250
  0.500000  0.461538  0.000000      0.006250
  0.500000  0.448718  0.000000      0.006250
  0.500000  0.435897  0.000000      0.006250
  0.500000  0.423077  0.000000      0.006250
  0.500000  0.410256  0.000000      0.006250
  0.500000  0.397436  0.000000      0.006250
  0.500000  0.384615  0.000000      0.006250
  0.500000  0.371795  0.000000      0.006250
  0.500000  0.358974  0.000000      0.006250
  0.500000  0.346154  0.000000      0.006250
  0.500000  0.333333  0.000000      0.006250
  0.500000  0.320513  0.000000      0.006250
  0.500000  0.307692  0.000000      0.006250
  0.500000  0.294872  0.000000      0.006250
  0.500000  0.282051  0.000000      0.006250
  0.500000  0.269231  0.000000      0.006250
  0.500000  0.256410  0.000000      0.006250
  0.500000  0.243590  0.000000      0.006250
  0.500000  0.230769  0.000000      0.006250
  0.500000  0.217949  0.000000      0.006250
  0.500000  0.205128  0.000000      0.006250
  0.500000  0.192308  0.000000      0.006250
  0.500000  0.179487  0.000000      0.006250
  0.500000  0.166667  0.000000      0.006250
  0.500000  0.153846  0.000000      0.006250
  0.500000  0.141026  0.000000      0.006250
  0.500000  0.128205  0.000000      0.006250
  0.500000  0.115385  0.000000      0.006250
  0.500000  0.102564  0.000000      0.006250
  0.500000  0.089744  0.000000      0.006250
  0.500000  0.076923  0.000000      0.006250
  0.500000  0.064103  0.000000      0.006250
  0.500000  0.051282  0.000000      0.006250
  0.500000  0.038462  0.000000      0.006250
  0.500000  0.025641  0.000000      0.006250
  0.500000  0.012821  0.000000      0.006250
  0.500000  0.000000  0.000000      0.006250
  0.500000  0.000000  0.000000      0.006250
  0.487179  0.000000  0.000000      0.006250
  0.474359  0.000000  0.000000      0.006250
  0.461538  0.000000  0.000000      0.006250
  0.448718  0.000000  0.000000      0.006250
  0.435897  0.000000  0.000000      0.006250
  0.423077  0.000000  0.000000      0.006250
  0.410256  0.000000  0.000000      0.006250
  0.397436  0.000000  0.000000      0.006250
  0.384615  0.000000  0.000000      0.006250
  0.371795  0.000000  0.000000      0.006250
  0.358974  0.000000  0.000000      0.006250
  0.346154  0.000000  0.000000      0.006250
  0.333333  0.000000  0.000000      0.006250
  0.320513  0.000000  0.000000      0.006250
  0.307692  0.000000  0.000000      0.006250
  0.294872  0.000000  0.000000      0.006250
  0.282051  0.000000  0.000000      0.006250
  0.269231  0.000000  0.000000      0.006250
  0.256410  0.000000  0.000000      0.006250
  0.243590  0.000000  0.000000      0.006250
  0.230769  0.000000  0.000000      0.006250
  0.217949  0.000000  0.000000      0.006250
  0.205128  0.000000  0.000000      0.006250
  0.192308  0.000000  0.000000      0.006250
  0.179487  0.000000  0.000000      0.006250
  0.166667  0.000000  0.000000      0.006250
  0.153846  0.000000  0.000000      0.006250
  0.141026  0.000000  0.000000      0.006250
  0.128205  0.000000  0.000000      0.006250
  0.115385  0.000000  0.000000      0.006250
  0.102564  0.000000  0.000000      0.006250
  0.089744  0.000000  0.000000      0.006250
  0.076923  0.000000  0.000000      0.006250
  0.064103  0.000000  0.000000      0.006250
  0.051282  0.000000  0.000000      0.006250
  0.038462  0.000000  0.000000      0.006250
  0.025641  0.000000  0.000000      0.006250
  0.012821  0.000000  0.000000      0.006250
  0.000000  0.000000  0.000000      0.006250
  0.000000  0.000000  0.000000      0.006250
  0.000000  0.012821  0.000000      0.006250
  0.000000  0.025641  0.000000      0.006250
  0.000000  0.038462  0.000000      0.006250
  0.000000  0.051282  0.000000      0.006250
  0.000000  0.064103  0.000000      0.006250
  0.000000  0.076923  0.000000      0.006250
  0.000000  0.089744  0.000000      0.006250
  0.000000  0.102564  0.000000      0.006250
  0.000000  0.115385  0.000000      0.006250
  0.000000  0.128205  0.000000      0.006250
  0.000000  0.141026  0.000000      0.006250
  0.000000  0.153846  0.000000      0.006250
  0.000000  0.166667  0.000000      0.006250
  0.000000  0.179487  0.000000      0.006250
  0.000000  0.192308  0.000000      0.006250
  0.000000  0.205128  0.000000      0.006250
  0.000000  0.217949  0.000000      0.006250
  0.000000  0.230769  0.000000      0.006250
  0.000000  0.243590  0.000000      0.006250
  0.000000  0.256410  0.000000      0.006250
  0.000000  0.269231  0.000000      0.006250
  0.000000  0.282051  0.000000      0.006250
  0.000000  0.294872  0.000000      0.006250
  0.000000  0.307692  0.000000      0.006250
  0.000000  0.320513  0.000000      0.006250
  0.000000  0.333333  0.000000      0.006250
  0.000000  0.346154  0.000000      0.006250
  0.000000  0.358974  0.000000      0.006250
  0.000000  0.371795  0.000000      0.006250
  0.000000  0.384615  0.000000      0.006250
  0.000000  0.397436  0.000000      0.006250
  0.000000  0.410256  0.000000      0.006250
  0.000000  0.423077  0.000000      0.006250
  0.000000  0.435897  0.000000      0.006250
  0.000000  0.448718  0.000000      0.006250
  0.000000  0.461538  0.000000      0.006250
  0.000000  0.474359  0.000000      0.006250
  0.000000  0.487179  0.000000      0.006250
  0.000000  0.500000  0.000000      0.006250

 Following cartesian coordinates:
            Coordinates               Weight
  0.000000  0.102249  0.000000      0.006250
  0.002812  0.102249  0.000000      0.006250
  0.005623  0.102249  0.000000      0.006250
  0.008435  0.102249  0.000000      0.006250
  0.011246  0.102249  0.000000      0.006250
  0.014058  0.102249  0.000000      0.006250
  0.016869  0.102249  0.000000      0.006250
  0.019681  0.102249  0.000000      0.006250
  0.022492  0.102249  0.000000      0.006250
  0.025304  0.102249  0.000000      0.006250
  0.028115  0.102249  0.000000      0.006250
  0.030927  0.102249  0.000000      0.006250
  0.033738  0.102249  0.000000      0.006250
  0.036550  0.102249  0.000000      0.006250
  0.039361  0.102249  0.000000      0.006250
  0.042173  0.102249  0.000000      0.006250
  0.044984  0.102249  0.000000      0.006250
  0.047796  0.102249  0.000000      0.006250
  0.050607  0.102249  0.000000      0.006250
  0.053419  0.102249  0.000000      0.006250
  0.056230  0.102249  0.000000      0.006250
  0.059042  0.102249  0.000000      0.006250
  0.061853  0.102249  0.000000      0.006250
  0.064665  0.102249  0.000000      0.006250
  0.067476  0.102249  0.000000      0.006250
  0.070288  0.102249  0.000000      0.006250
  0.073099  0.102249  0.000000      0.006250
  0.075911  0.102249  0.000000      0.006250
  0.078722  0.102249  0.000000      0.006250
  0.081534  0.102249  0.000000      0.006250
  0.084345  0.102249  0.000000      0.006250
  0.087157  0.102249  0.000000      0.006250
  0.089969  0.102249  0.000000      0.006250
  0.092780  0.102249  0.000000      0.006250
  0.095592  0.102249  0.000000      0.006250
  0.098403  0.102249  0.000000      0.006250
  0.101215  0.102249  0.000000      0.006250
  0.104026  0.102249  0.000000      0.006250
  0.106838  0.102249  0.000000      0.006250
  0.109649  0.102249  0.000000      0.006250
  0.109649  0.102249  0.000000      0.006250
  0.109649  0.099628  0.000000      0.006250
  0.109649  0.097006  0.000000      0.006250
  0.109649  0.094384  0.000000      0.006250
  0.109649  0.091762  0.000000      0.006250
  0.109649  0.089141  0.000000      0.006250
  0.109649  0.086519  0.000000      0.006250
  0.109649  0.083897  0.000000      0.006250
  0.109649  0.081275  0.000000      0.006250
  0.109649  0.078653  0.000000      0.006250
  0.109649  0.076032  0.000000      0.006250
  0.109649  0.073410  0.000000      0.006250
  0.109649  0.070788  0.000000      0.006250
  0.109649  0.068166  0.000000      0.006250
  0.109649  0.065545  0.000000      0.006250
  0.109649  0.062923  0.000000      0.006250
  0.109649  0.060301  0.000000      0.006250
  0.109649  0.057679  0.000000      0.006250
  0.109649  0.055057  0.000000      0.006250
  0.109649  0.052436  0.000000      0.006250
  0.109649  0.049814  0.000000      0.006250
  0.109649  0.047192  0.000000      0.006250
  0.109649  0.044570  0.000000      0.006250
  0.109649  0.041949  0.000000      0.006250
  0.109649  0.039327  0.000000      0.006250
  0.109649  0.036705  0.000000      0.006250
  0.109649  0.034083  0.000000      0.006250
  0.109649  0.031461  0.000000      0.006250
  0.109649  0.028840  0.000000      0.006250
  0.109649  0.026218  0.000000      0.006250
  0.109649  0.023596  0.000000      0.006250
  0.109649  0.020974  0.000000      0.006250
  0.109649  0.018352  0.000000      0.006250
  0.109649  0.015731  0.000000      0.006250
  0.109649  0.013109  0.000000      0.006250
  0.109649  0.010487  0.000000      0.006250
  0.109649  0.007865  0.000000      0.006250
  0.109649  0.005244  0.000000      0.006250
  0.109649  0.002622  0.000000      0.006250
  0.109649  0.000000  0.000000      0.006250
  0.109649  0.000000  0.000000      0.006250
  0.106838  0.000000  0.000000      0.006250
  0.104026  0.000000  0.000000      0.006250
  0.101215  0.000000  0.000000      0.006250
  0.098403  0.000000  0.000000      0.006250
  0.095592  0.000000  0.000000      0.006250
  0.092780  0.000000  0.000000      0.006250
  0.089969  0.000000  0.000000      0.006250
  0.087157  0.000000  0.000000      0.006250
  0.084345  0.000000  0.000000      0.006250
  0.081534  0.000000  0.000000      0.006250
  0.078722  0.000000  0.000000      0.006250
  0.075911  0.000000  0.000000      0.006250
  0.073099  0.000000  0.000000      0.006250
  0.070288  0.000000  0.000000      0.006250
  0.067476  0.000000  0.000000      0.006250
  0.064665  0.000000  0.000000      0.006250
  0.061853  0.000000  0.000000      0.006250
  0.059042  0.000000  0.000000      0.006250
  0.056230  0.000000  0.000000      0.006250
  0.053419  0.000000  0.000000      0.006250
  0.050607  0.000000  0.000000      0.006250
  0.047796  0.000000  0.000000      0.006250
  0.044984  0.000000  0.000000      0.006250
  0.042173  0.000000  0.000000      0.006250
  0.039361  0.000000  0.000000      0.006250
  0.036550  0.000000  0.000000      0.006250
  0.033738  0.000000  0.000000      0.006250
  0.030927  0.000000  0.000000      0.006250
  0.028115  0.000000  0.000000      0.006250
  0.025304  0.000000  0.000000      0.006250
  0.022492  0.000000  0.000000      0.006250
  0.019681  0.000000  0.000000      0.006250
  0.016869  0.000000  0.000000      0.006250
  0.014058  0.000000  0.000000      0.006250
  0.011246  0.000000  0.000000      0.006250
  0.008435  0.000000  0.000000      0.006250
  0.005623  0.000000  0.000000      0.006250
  0.002812  0.000000  0.000000      0.006250
  0.000000  0.000000  0.000000      0.006250
  0.000000  0.000000  0.000000      0.006250
  0.000000  0.002622  0.000000      0.006250
  0.000000  0.005244  0.000000      0.006250
  0.000000  0.007865  0.000000      0.006250
  0.000000  0.010487  0.000000      0.006250
  0.000000  0.013109  0.000000      0.006250
  0.000000  0.015731  0.000000      0.006250
  0.000000  0.018352  0.000000      0.006250
  0.000000  0.020974  0.000000      0.006250
  0.000000  0.023596  0.000000      0.006250
  0.000000  0.026218  0.000000      0.006250
  0.000000  0.028840  0.000000      0.006250
  0.000000  0.031461  0.000000      0.006250
  0.000000  0.034083  0.000000      0.006250
  0.000000  0.036705  0.000000      0.006250
  0.000000  0.039327  0.000000      0.006250
  0.000000  0.041949  0.000000      0.006250
  0.000000  0.044570  0.000000      0.006250
  0.000000  0.047192  0.000000      0.006250
  0.000000  0.049814  0.000000      0.006250
  0.000000  0.052436  0.000000      0.006250
  0.000000  0.055057  0.000000      0.006250
  0.000000  0.057679  0.000000      0.006250
  0.000000  0.060301  0.000000      0.006250
  0.000000  0.062923  0.000000      0.006250
  0.000000  0.065545  0.000000      0.006250
  0.000000  0.068166  0.000000      0.006250
  0.000000  0.070788  0.000000      0.006250
  0.000000  0.073410  0.000000      0.006250
  0.000000  0.076032  0.000000      0.006250
  0.000000  0.078653  0.000000      0.006250
  0.000000  0.081275  0.000000      0.006250
  0.000000  0.083897  0.000000      0.006250
  0.000000  0.086519  0.000000      0.006250
  0.000000  0.089141  0.000000      0.006250
  0.000000  0.091762  0.000000      0.006250
  0.000000  0.094384  0.000000      0.006250
  0.000000  0.097006  0.000000      0.006250
  0.000000  0.099628  0.000000      0.006250
  0.000000  0.102249  0.000000      0.006250
 


--------------------------------------------------------------------------------------------------------




 Dimension of arrays:
   k-points           NKPTS =    160   k-points in BZ     NKDIM =    160   number of bands    NBANDS=     30
   number of dos      NEDOS =    301   number of ions     NIONS =      4
   non local maximal  LDIM  =      5   non local SUM 2l+1 LMDIM =     13
   total plane-waves  NPLWV =  34560
   max r-space proj   IRMAX =      1   max aug-charges    IRDMAX=   4831
   dimension x,y,z NGX =    18 NGY =   20 NGZ =   96
   dimension x,y,z NGXF=    32 NGYF=   36 NGZF=  180
   support grid    NGXF=    32 NGYF=   36 NGZF=  180
   ions per type =               4
   NGX,Y,Z   is equivalent  to a cutoff of   6.56,  6.80,  6.68 a.u.
   NGXF,Y,Z  is equivalent  to a cutoff of  11.67, 12.24, 12.52 a.u.

 SYSTEM =  In2Bi2 ML                               
 POSCAR =  Bi                                      

 Startparameter for this run:
   NWRITE =      2    write-flag & timer
   PREC   = high      normal or accurate (medium, high low for compatibility)
   ISTART =      0    job   : 0-new  1-cont  2-samecut
   ICHARG =     11    charge: 1-file 2-atom 10-const
   ISPIN  =      1    spin polarized calculation?
   LNONCOLLINEAR =      T non collinear calculations
   LSORBIT =      T    spin-orbit coupling
   INIWAV =      1    electr: 0-lowe 1-rand  2-diag
   LASPH  =      F    aspherical Exc in radial PAW
 Electronic Relaxation 1
   ENCUT  =  150.0 eV  11.02 Ry    3.32 a.u.   4.55  4.88 23.87*2*pi/ulx,y,z
   ENINI  =  150.0     initial cutoff
   ENAUG  =  265.4 eV  augmentation charge cutoff
   NELM   =     80;   NELMIN=  6; NELMDL= -5     # of ELM steps 
   EDIFF  = 0.1E-05   stopping-criterion for ELM
   LREAL  =      F    real-space projection
   NLSPLINE    = F    spline interpolate recip. space projectors
   LCOMPAT=      F    compatible to vasp.4.4
   GGA_COMPAT  = T    GGA compatible to vasp.4.4-vasp.4.6
   LMAXPAW     = -100 max onsite density
   LMAXMIX     =    2 max onsite mixed and CHGCAR
   VOSKOWN=      0    Vosko Wilk Nusair interpolation
   ROPT   =    0.00000
 Ionic relaxation
   EDIFFG = 0.1E-04   stopping-criterion for IOM
   NSW    =      0    number of steps for IOM
   NBLOCK =      1;   KBLOCK =      1    inner block; outer block 
   IBRION =     -1    ionic relax: 0-MD 1-quasi-New 2-CG
   NFREE  =      0    steps in history (QN), initial steepest desc. (CG)
   ISIF   =      2    stress and relaxation
   IWAVPR =     10    prediction:  0-non 1-charg 2-wave 3-comb
   ISYM   =      2    0-nonsym 1-usesym 2-fastsym
   LCORR  =      T    Harris-Foulkes like correction to forces

   POTIM  = 0.5000    time-step for ionic-motion
   TEIN   =    0.0    initial temperature
   TEBEG  =    0.0;   TEEND  =   0.0 temperature during run
   SMASS  =  -3.00    Nose mass-parameter (am)
   estimated Nose-frequenzy (Omega)   =  0.10E-29 period in steps = 0.13E+47 mass=  -0.475E-27a.u.
   SCALEE = 1.0000    scale energy and forces
   NPACO  =    256;   APACO  = 10.0  distance and # of slots for P.C.
   PSTRESS=    0.0 pullay stress

  Mass of Ions in am
   POMASS = 208.98
  Ionic Valenz
   ZVAL   =   5.00
  Atomic Wigner-Seitz radii
   RWIGS  =  -1.00
  virtual crystal weights 
   VCA    =   1.00
   NELECT =      20.0000    total number of electrons
   NUPDOWN=      -1.0000    fix difference up-down

 DOS related values:
   EMIN   =  10.00;   EMAX   =-10.00  energy-range for DOS
   EFERMI =   0.00;   METHOD = LEGACY      
   ISMEAR =     0;   SIGMA  =   0.01  broadening in eV -4-tet -1-fermi 0-gaus

 Electronic relaxation 2 (details)
   IALGO  =     38    algorithm
   LDIAG  =      T    sub-space diagonalisation (order eigenvalues)
   LSUBROT=      F    optimize rotation matrix (better conditioning)
   TURBO    =      0    0=normal 1=particle mesh
   IRESTART =      0    0=no restart 2=restart with 2 vectors
   NREBOOT  =      0    no. of reboots
   NMIN     =      0    reboot dimension
   EREF     =   0.00    reference energy to select bands
   IMIX   =      4    mixing-type and parameters
     AMIX     =   0.40;   BMIX     =  1.00
     AMIX_MAG =   1.60;   BMIX_MAG =  1.00
     AMIN     =   0.10
     WC   =   100.;   INIMIX=   1;  MIXPRE=   1;  MAXMIX= -45

 Intra band minimization:
   WEIMIN = 0.0000     energy-eigenvalue tresh-hold
   EBREAK =  0.83E-08  absolut break condition
   DEPER  =   0.30     relativ break condition  

   TIME   =   0.40     timestep for ELM

  volume/ion in A,a.u.               =     133.27       899.38
  Fermi-wavevector in a.u.,A,eV,Ry     =   0.548045  1.035655  4.086559  0.300354
  Thomas-Fermi vector in A             =   1.578564
 
 Write flags
   LWAVE        =      F    write WAVECAR
   LDOWNSAMPLE  =      F    k-point downsampling of WAVECAR
   LCHARG       =      F    write CHGCAR
   LVTOT        =      F    write LOCPOT, total local potential
   LVHAR        =      F    write LOCPOT, Hartree potential only
   WRT_POTENTIAL= false  ! write potential to hdf5 file
   LELF         =      F    write electronic localiz. function (ELF)
   LORBIT       =     11    0 simple, 1 ext, 2 COOP (PROOUT), +10 PAW based schemes


 Dipole corrections
   LMONO      =      F    monopole corrections only (constant potential shift)
   LDIPOL     =      F    correct potential (dipole corrections)
   IDIPOL     =      0    1-x, 2-y, 3-z, 4-all directions 
   EPSILON    =  1.0000000 bulk dielectric constant
   LVACPOTAV  =      F  vacuum potentials using an averaging scheme for the charge density
   VACPOTFLAT =  0.1000000 required flatness to determine vacuum potential
 Exchange correlation treatment:
   GGA     = PE    functional components
   XC_C    = 1    coefficients multiplying the functional components
   LIBXC   =     F    Libxc                    
   VOSKOWN =     0    Vosko Wilk Nusair interpolation
   LHFCALC =     F    Hartree Fock is set to
   LHFONE  =     F    Hartree Fock one center treatment
   AEXX    =    0.0000 exact exchange contribution

 Parameters of functionals:
   PE:
     No parameter
 
 Van der Waals corrections
   IVDW    =     0    specifies the selected vdW correction

 Linear response parameters
   LEPSILON=     F    determine dielectric tensor
   LRPA    =     F    only Hartree local field effects (RPA)
   LNABLA  =     F    use nabla operator in PAW spheres
   LVEL    =     F    velocity operator in full k-point grid
   CSHIFT  =0.1000    complex shift for real part using Kramers Kronig
   OMEGAMAX=  -1.0    maximum frequency
   DEG_THRESHOLD= 0.2000000E-02 threshold for treating states as degnerate
   RTIME   =   -0.100 relaxation time in fs
  (WPLASMAI=    0.000 imaginary part of plasma frequency in eV, 0.658/RTIME)
   DFIELD  = 0.0000000 0.0000000 0.0000000 field for delta impulse in time
 
  Optional k-point grid parameters
   LKPOINTS_OPT  =     F    use optional k-point grid
   KPOINTS_OPT_MODE=     1    mode for optional k-point grid
 
 Orbital magnetization related:
   ORBITALMAG=     F  switch on orbital magnetization
   LCHIMAG   =     F  perturbation theory with respect to B field
   DQ        =  0.001000  dq finite difference perturbation B field
   LLRAUG    =     F  two centre corrections for induced B field
   LBONE     =     F  B-component reconstruction in AE one-centre
   LVGVCALC  =     T  calculate vGv susceptibility
   LVGVAPPL  =     F  apply vGv susceptibility instead of pGv for G=0

 Random number generation:
   RANDOM_GENERATOR = DEFAULT
   PCG_SEED         = not used


--------------------------------------------------------------------------------------------------------


 Static calculation
 charge density and potential remain constant during run
 non collinear spin polarized calculation
 Variant of blocked Davidson
 Davidson routine will perform the subspace rotation
 perform sub-space diagonalisation
    after iterative eigenvector-optimisation
 no mixing
 using additional bands           20
 reciprocal scheme for non local part
 use partial core corrections
 calculate Harris-corrections to forces 
   (improved forces if not selfconsistent)
 use gradient corrections 
 WARNING: stress and forces are not correct
  (second derivative of E(xc) not defined)
 use of overlap-Matrix (Vanderbilt PP)
 Gauss-broadening in eV      SIGMA  =   0.01


--------------------------------------------------------------------------------------------------------


  energy-cutoff  :      150.00
  volume of cell :      533.10
      direct lattice vectors                 reciprocal lattice vectors
     4.560000000  0.000000000  0.000000000     0.219298246  0.000000000  0.000000000
     0.000000000  4.890000000  0.000000000     0.000000000  0.204498978  0.000000000
     0.000000000  0.000000000 23.907353893     0.000000000  0.000000000  0.041828134

  length of vectors
     4.560000000  4.890000000 23.907353893     0.219298246  0.204498978  0.041828134


 
 k-points in units of 2pi/SCALE and weight: k-points along high symm kpt            
   0.00000000  0.10224949  0.00000000       0.006
   0.00281152  0.10224949  0.00000000       0.006
   0.00562303  0.10224949  0.00000000       0.006
   0.00843455  0.10224949  0.00000000       0.006
   0.01124606  0.10224949  0.00000000       0.006
   0.01405758  0.10224949  0.00000000       0.006
   0.01686910  0.10224949  0.00000000       0.006
   0.01968061  0.10224949  0.00000000       0.006
   0.02249213  0.10224949  0.00000000       0.006
   0.02530364  0.10224949  0.00000000       0.006
   0.02811516  0.10224949  0.00000000       0.006
   0.03092668  0.10224949  0.00000000       0.006
   0.03373819  0.10224949  0.00000000       0.006
   0.03654971  0.10224949  0.00000000       0.006
   0.03936122  0.10224949  0.00000000       0.006
   0.04217274  0.10224949  0.00000000       0.006
   0.04498426  0.10224949  0.00000000       0.006
   0.04779577  0.10224949  0.00000000       0.006
   0.05060729  0.10224949  0.00000000       0.006
   0.05341880  0.10224949  0.00000000       0.006
   0.05623032  0.10224949  0.00000000       0.006
   0.05904184  0.10224949  0.00000000       0.006
   0.06185335  0.10224949  0.00000000       0.006
   0.06466487  0.10224949  0.00000000       0.006
   0.06747638  0.10224949  0.00000000       0.006
   0.07028790  0.10224949  0.00000000       0.006
   0.07309942  0.10224949  0.00000000       0.006
   0.07591093  0.10224949  0.00000000       0.006
   0.07872245  0.10224949  0.00000000       0.006
   0.08153396  0.10224949  0.00000000       0.006
   0.08434548  0.10224949  0.00000000       0.006
   0.08715700  0.10224949  0.00000000       0.006
   0.08996851  0.10224949  0.00000000       0.006
   0.09278003  0.10224949  0.00000000       0.006
   0.09559154  0.10224949  0.00000000       0.006
   0.09840306  0.10224949  0.00000000       0.006
   0.10121457  0.10224949  0.00000000       0.006
   0.10402609  0.10224949  0.00000000       0.006
   0.10683761  0.10224949  0.00000000       0.006
   0.10964912  0.10224949  0.00000000       0.006
   0.10964912  0.10224949  0.00000000       0.006
   0.10964912  0.09962771  0.00000000       0.006
   0.10964912  0.09700593  0.00000000       0.006
   0.10964912  0.09438414  0.00000000       0.006
   0.10964912  0.09176236  0.00000000       0.006
   0.10964912  0.08914058  0.00000000       0.006
   0.10964912  0.08651880  0.00000000       0.006
   0.10964912  0.08389702  0.00000000       0.006
   0.10964912  0.08127523  0.00000000       0.006
   0.10964912  0.07865345  0.00000000       0.006
   0.10964912  0.07603167  0.00000000       0.006
   0.10964912  0.07340989  0.00000000       0.006
   0.10964912  0.07078811  0.00000000       0.006
   0.10964912  0.06816633  0.00000000       0.006
   0.10964912  0.06554454  0.00000000       0.006
   0.10964912  0.06292276  0.00000000       0.006
   0.10964912  0.06030098  0.00000000       0.006
   0.10964912  0.05767920  0.00000000       0.006
   0.10964912  0.05505742  0.00000000       0.006
   0.10964912  0.05243564  0.00000000       0.006
   0.10964912  0.04981385  0.00000000       0.006
   0.10964912  0.04719207  0.00000000       0.006
   0.10964912  0.04457029  0.00000000       0.006
   0.10964912  0.04194851  0.00000000       0.006
   0.10964912  0.03932673  0.00000000       0.006
   0.10964912  0.03670494  0.00000000       0.006
   0.10964912  0.03408316  0.00000000       0.006
   0.10964912  0.03146138  0.00000000       0.006
   0.10964912  0.02883960  0.00000000       0.006
   0.10964912  0.02621782  0.00000000       0.006
   0.10964912  0.02359604  0.00000000       0.006
   0.10964912  0.02097425  0.00000000       0.006
   0.10964912  0.01835247  0.00000000       0.006
   0.10964912  0.01573069  0.00000000       0.006
   0.10964912  0.01310891  0.00000000       0.006
   0.10964912  0.01048713  0.00000000       0.006
   0.10964912  0.00786535  0.00000000       0.006
   0.10964912  0.00524356  0.00000000       0.006
   0.10964912  0.00262178  0.00000000       0.006
   0.10964912  0.00000000  0.00000000       0.006
   0.10964912  0.00000000  0.00000000       0.006
   0.10683761  0.00000000  0.00000000       0.006
   0.10402609  0.00000000  0.00000000       0.006
   0.10121457  0.00000000  0.00000000       0.006
   0.09840306  0.00000000  0.00000000       0.006
   0.09559154  0.00000000  0.00000000       0.006
   0.09278003  0.00000000  0.00000000       0.006
   0.08996851  0.00000000  0.00000000       0.006
   0.08715700  0.00000000  0.00000000       0.006
   0.08434548  0.00000000  0.00000000       0.006
   0.08153396  0.00000000  0.00000000       0.006
   0.07872245  0.00000000  0.00000000       0.006
   0.07591093  0.00000000  0.00000000       0.006
   0.07309942  0.00000000  0.00000000       0.006
   0.07028790  0.00000000  0.00000000       0.006
   0.06747638  0.00000000  0.00000000       0.006
   0.06466487  0.00000000  0.00000000       0.006
   0.06185335  0.00000000  0.00000000       0.006
   0.05904184  0.00000000  0.00000000       0.006
   0.05623032  0.00000000  0.00000000       0.006
   0.05341880  0.00000000  0.00000000       0.006
   0.05060729  0.00000000  0.00000000       0.006
   0.04779577  0.00000000  0.00000000       0.006
   0.04498426  0.00000000  0.00000000       0.006
   0.04217274  0.00000000  0.00000000       0.006
   0.03936122  0.00000000  0.00000000       0.006
   0.03654971  0.00000000  0.00000000       0.006
   0.03373819  0.00000000  0.00000000       0.006
   0.03092668  0.00000000  0.00000000       0.006
   0.02811516  0.00000000  0.00000000       0.006
   0.02530364  0.00000000  0.00000000       0.006
   0.02249213  0.00000000  0.00000000       0.006
   0.01968061  0.00000000  0.00000000       0.006
   0.01686910  0.00000000  0.00000000       0.006
   0.01405758  0.00000000  0.00000000       0.006
   0.01124606  0.00000000  0.00000000       0.006
   0.00843455  0.00000000  0.00000000       0.006
   0.00562303  0.00000000  0.00000000       0.006
   0.00281152  0.00000000  0.00000000       0.006
   0.00000000  0.00000000  0.00000000       0.006
   0.00000000  0.00000000  0.00000000       0.006
   0.00000000  0.00262178  0.00000000       0.006
   0.00000000  0.00524356  0.00000000       0.006
   0.00000000  0.00786535  0.00000000       0.006
   0.00000000  0.01048713  0.00000000       0.006
   0.00000000  0.01310891  0.00000000       0.006
   0.00000000  0.01573069  0.00000000       0.006
   0.00000000  0.01835247  0.00000000       0.006
   0.00000000  0.02097425  0.00000000       0.006
   0.00000000  0.02359604  0.00000000       0.006
   0.00000000  0.02621782  0.00000000       0.006
   0.00000000  0.02883960  0.00000000       0.006
   0.00000000  0.03146138  0.00000000       0.006
   0.00000000  0.03408316  0.00000000       0.006
   0.00000000  0.03670494  0.00000000       0.006
   0.00000000  0.03932673  0.00000000       0.006
   0.00000000  0.04194851  0.00000000       0.006
   0.00000000  0.04457029  0.00000000       0.006
   0.00000000  0.04719207  0.00000000       0.006
   0.00000000  0.04981385  0.00000000       0.006
   0.00000000  0.05243564  0.00000000       0.006
   0.00000000  0.05505742  0.00000000       0.006
   0.00000000  0.05767920  0.00000000       0.006
   0.00000000  0.06030098  0.00000000       0.006
   0.00000000  0.06292276  0.00000000       0.006
   0.00000000  0.06554454  0.00000000       0.006
   0.00000000  0.06816633  0.00000000       0.006
   0.00000000  0.07078811  0.00000000       0.006
   0.00000000  0.07340989  0.00000000       0.006
   0.00000000  0.07603167  0.00000000       0.006
   0.00000000  0.07865345  0.00000000       0.006
   0.00000000  0.08127523  0.00000000       0.006
   0.00000000  0.08389702  0.00000000       0.006
   0.00000000  0.08651880  0.00000000       0.006
   0.00000000  0.08914058  0.00000000       0.006
   0.00000000  0.09176236  0.00000000       0.006
   0.00000000  0.09438414  0.00000000       0.006
   0.00000000  0.09700593  0.00000000       0.006
   0.00000000  0.09962771  0.00000000       0.006
   0.00000000  0.10224949  0.00000000       0.006
 
 k-points in reciprocal lattice and weights: k-points along high symm kpt            
   0.00000000  0.50000000  0.00000000       0.006
   0.01282051  0.50000000  0.00000000       0.006
   0.02564103  0.50000000  0.00000000       0.006
   0.03846154  0.50000000  0.00000000       0.006
   0.05128205  0.50000000  0.00000000       0.006
   0.06410256  0.50000000  0.00000000       0.006
   0.07692308  0.50000000  0.00000000       0.006
   0.08974359  0.50000000  0.00000000       0.006
   0.10256410  0.50000000  0.00000000       0.006
   0.11538462  0.50000000  0.00000000       0.006
   0.12820513  0.50000000  0.00000000       0.006
   0.14102564  0.50000000  0.00000000       0.006
   0.15384615  0.50000000  0.00000000       0.006
   0.16666667  0.50000000  0.00000000       0.006
   0.17948718  0.50000000  0.00000000       0.006
   0.19230769  0.50000000  0.00000000       0.006
   0.20512821  0.50000000  0.00000000       0.006
   0.21794872  0.50000000  0.00000000       0.006
   0.23076923  0.50000000  0.00000000       0.006
   0.24358974  0.50000000  0.00000000       0.006
   0.25641026  0.50000000  0.00000000       0.006
   0.26923077  0.50000000  0.00000000       0.006
   0.28205128  0.50000000  0.00000000       0.006
   0.29487179  0.50000000  0.00000000       0.006
   0.30769231  0.50000000  0.00000000       0.006
   0.32051282  0.50000000  0.00000000       0.006
   0.33333333  0.50000000  0.00000000       0.006
   0.34615385  0.50000000  0.00000000       0.006
   0.35897436  0.50000000  0.00000000       0.006
   0.37179487  0.50000000  0.00000000       0.006
   0.38461538  0.50000000  0.00000000       0.006
   0.39743590  0.50000000  0.00000000       0.006
   0.41025641  0.50000000  0.00000000       0.006
   0.42307692  0.50000000  0.00000000       0.006
   0.43589744  0.50000000  0.00000000       0.006
   0.44871795  0.50000000  0.00000000       0.006
   0.46153846  0.50000000  0.00000000       0.006
   0.47435897  0.50000000  0.00000000       0.006
   0.48717949  0.50000000  0.00000000       0.006
   0.50000000  0.50000000  0.00000000       0.006
   0.50000000  0.50000000  0.00000000       0.006
   0.50000000  0.48717949  0.00000000       0.006
   0.50000000  0.47435897  0.00000000       0.006
   0.50000000  0.46153846  0.00000000       0.006
   0.50000000  0.44871795  0.00000000       0.006
   0.50000000  0.43589744  0.00000000       0.006
   0.50000000  0.42307692  0.00000000       0.006
   0.50000000  0.41025641  0.00000000       0.006
   0.50000000  0.39743590  0.00000000       0.006
   0.50000000  0.38461538  0.00000000       0.006
   0.50000000  0.37179487  0.00000000       0.006
   0.50000000  0.35897436  0.00000000       0.006
   0.50000000  0.34615385  0.00000000       0.006
   0.50000000  0.33333333  0.00000000       0.006
   0.50000000  0.32051282  0.00000000       0.006
   0.50000000  0.30769231  0.00000000       0.006
   0.50000000  0.29487179  0.00000000       0.006
   0.50000000  0.28205128  0.00000000       0.006
   0.50000000  0.26923077  0.00000000       0.006
   0.50000000  0.25641026  0.00000000       0.006
   0.50000000  0.24358974  0.00000000       0.006
   0.50000000  0.23076923  0.00000000       0.006
   0.50000000  0.21794872  0.00000000       0.006
   0.50000000  0.20512821  0.00000000       0.006
   0.50000000  0.19230769  0.00000000       0.006
   0.50000000  0.17948718  0.00000000       0.006
   0.50000000  0.16666667  0.00000000       0.006
   0.50000000  0.15384615  0.00000000       0.006
   0.50000000  0.14102564  0.00000000       0.006
   0.50000000  0.12820513  0.00000000       0.006
   0.50000000  0.11538462  0.00000000       0.006
   0.50000000  0.10256410  0.00000000       0.006
   0.50000000  0.08974359  0.00000000       0.006
   0.50000000  0.07692308  0.00000000       0.006
   0.50000000  0.06410256  0.00000000       0.006
   0.50000000  0.05128205  0.00000000       0.006
   0.50000000  0.03846154  0.00000000       0.006
   0.50000000  0.02564103  0.00000000       0.006
   0.50000000  0.01282051  0.00000000       0.006
   0.50000000  0.00000000  0.00000000       0.006
   0.50000000  0.00000000  0.00000000       0.006
   0.48717949  0.00000000  0.00000000       0.006
   0.47435897  0.00000000  0.00000000       0.006
   0.46153846  0.00000000  0.00000000       0.006
   0.44871795  0.00000000  0.00000000       0.006
   0.43589744  0.00000000  0.00000000       0.006
   0.42307692  0.00000000  0.00000000       0.006
   0.41025641  0.00000000  0.00000000       0.006
   0.39743590  0.00000000  0.00000000       0.006
   0.38461538  0.00000000  0.00000000       0.006
   0.37179487  0.00000000  0.00000000       0.006
   0.35897436  0.00000000  0.00000000       0.006
   0.34615385  0.00000000  0.00000000       0.006
   0.33333333  0.00000000  0.00000000       0.006
   0.32051282  0.00000000  0.00000000       0.006
   0.30769231  0.00000000  0.00000000       0.006
   0.29487179  0.00000000  0.00000000       0.006
   0.28205128  0.00000000  0.00000000       0.006
   0.26923077  0.00000000  0.00000000       0.006
   0.25641026  0.00000000  0.00000000       0.006
   0.24358974  0.00000000  0.00000000       0.006
   0.23076923  0.00000000  0.00000000       0.006
   0.21794872  0.00000000  0.00000000       0.006
   0.20512821  0.00000000  0.00000000       0.006
   0.19230769  0.00000000  0.00000000       0.006
   0.17948718  0.00000000  0.00000000       0.006
   0.16666667  0.00000000  0.00000000       0.006
   0.15384615  0.00000000  0.00000000       0.006
   0.14102564  0.00000000  0.00000000       0.006
   0.12820513  0.00000000  0.00000000       0.006
   0.11538462  0.00000000  0.00000000       0.006
   0.10256410  0.00000000  0.00000000       0.006
   0.08974359  0.00000000  0.00000000       0.006
   0.07692308  0.00000000  0.00000000       0.006
   0.06410256  0.00000000  0.00000000       0.006
   0.05128205  0.00000000  0.00000000       0.006
   0.03846154  0.00000000  0.00000000       0.006
   0.02564103  0.00000000  0.00000000       0.006
   0.01282051  0.00000000  0.00000000       0.006
   0.00000000  0.00000000  0.00000000       0.006
   0.00000000  0.00000000  0.00000000       0.006
   0.00000000  0.01282051  0.00000000       0.006
   0.00000000  0.02564103  0.00000000       0.006
   0.00000000  0.03846154  0.00000000       0.006
   0.00000000  0.05128205  0.00000000       0.006
   0.00000000  0.06410256  0.00000000       0.006
   0.00000000  0.07692308  0.00000000       0.006
   0.00000000  0.08974359  0.00000000       0.006
   0.00000000  0.10256410  0.00000000       0.006
   0.00000000  0.11538462  0.00000000       0.006
   0.00000000  0.12820513  0.00000000       0.006
   0.00000000  0.14102564  0.00000000       0.006
   0.00000000  0.15384615  0.00000000       0.006
   0.00000000  0.16666667  0.00000000       0.006
   0.00000000  0.17948718  0.00000000       0.006
   0.00000000  0.19230769  0.00000000       0.006
   0.00000000  0.20512821  0.00000000       0.006
   0.00000000  0.21794872  0.00000000       0.006
   0.00000000  0.23076923  0.00000000       0.006
   0.00000000  0.24358974  0.00000000       0.006
   0.00000000  0.25641026  0.00000000       0.006
   0.00000000  0.26923077  0.00000000       0.006
   0.00000000  0.28205128  0.00000000       0.006
   0.00000000  0.29487179  0.00000000       0.006
   0.00000000  0.30769231  0.00000000       0.006
   0.00000000  0.32051282  0.00000000       0.006
   0.00000000  0.33333333  0.00000000       0.006
   0.00000000  0.34615385  0.00000000       0.006
   0.00000000  0.35897436  0.00000000       0.006
   0.00000000  0.37179487  0.00000000       0.006
   0.00000000  0.38461538  0.00000000       0.006
   0.00000000  0.39743590  0.00000000       0.006
   0.00000000  0.41025641  0.00000000       0.006
   0.00000000  0.42307692  0.00000000       0.006
   0.00000000  0.43589744  0.00000000       0.006
   0.00000000  0.44871795  0.00000000       0.006
   0.00000000  0.46153846  0.00000000       0.006
   0.00000000  0.47435897  0.00000000       0.006
   0.00000000  0.48717949  0.00000000       0.006
   0.00000000  0.50000000  0.00000000       0.006
 
 position of ions in fractional coordinates (direct lattice) 
   0.00000000  0.00019662  0.05399106
   0.50000000  0.50019662  0.94600894
   0.50000000  0.42360338  0.07435148
   0.00000000  0.92360338  0.92564852
 
 position of ions in cartesian coordinates  (Angst):
   0.00000000  0.00096148  1.29078334
   2.28000000  2.44596148 22.61657055
   2.28000000  2.07142052  1.77754718
   0.00000000  4.51642052 22.12980672
 
 Euler angles ALPHA=     0.0000000  BETA=     0.0000000

 transformation matrix from SAXIS to cartesian coordinates
 ---------------------------------------------------------
     1.0000000 m_x     0.0000000 m_y     0.0000000 m_z
     0.0000000 m_x     1.0000000 m_y     0.0000000 m_z
     0.0000000 m_x     0.0000000 m_y     1.0000000 m_z

 transformation matrix from cartesian coordinates to SAXIS
 ---------------------------------------------------------
     1.0000000 m_x     0.0000000 m_y     0.0000000 m_z
     0.0000000 m_x     1.0000000 m_y     0.0000000 m_z
     0.0000000 m_x     0.0000000 m_y     1.0000000 m_z




--------------------------------------------------------------------------------------------------------


 k-point     1 :   0.0000 0.5000 0.0000  plane waves:    4476
 k-point     2 :   0.0128 0.5000 0.0000  plane waves:    4476
 k-point     3 :   0.0256 0.5000 0.0000  plane waves:    4476
 k-point     4 :   0.0385 0.5000 0.0000  plane waves:    4476
 k-point     5 :   0.0513 0.5000 0.0000  plane waves:    4484
 k-point     6 :   0.0641 0.5000 0.0000  plane waves:    4468
 k-point     7 :   0.0769 0.5000 0.0000  plane waves:    4460
 k-point     8 :   0.0897 0.5000 0.0000  plane waves:    4448
 k-point     9 :   0.1026 0.5000 0.0000  plane waves:    4464
 k-point    10 :   0.1154 0.5000 0.0000  plane waves:    4480
 k-point    11 :   0.1282 0.5000 0.0000  plane waves:    4488
 k-point    12 :   0.1410 0.5000 0.0000  plane waves:    4496
 k-point    13 :   0.1538 0.5000 0.0000  plane waves:    4496
 k-point    14 :   0.1667 0.5000 0.0000  plane waves:    4488
 k-point    15 :   0.1795 0.5000 0.0000  plane waves:    4468
 k-point    16 :   0.1923 0.5000 0.0000  plane waves:    4444
 k-point    17 :   0.2051 0.5000 0.0000  plane waves:    4436
 k-point    18 :   0.2179 0.5000 0.0000  plane waves:    4468
 k-point    19 :   0.2308 0.5000 0.0000  plane waves:    4460
 k-point    20 :   0.2436 0.5000 0.0000  plane waves:    4472
 k-point    21 :   0.2564 0.5000 0.0000  plane waves:    4464
 k-point    22 :   0.2692 0.5000 0.0000  plane waves:    4456
 k-point    23 :   0.2821 0.5000 0.0000  plane waves:    4472
 k-point    24 :   0.2949 0.5000 0.0000  plane waves:    4488
 k-point    25 :   0.3077 0.5000 0.0000  plane waves:    4472
 k-point    26 :   0.3205 0.5000 0.0000  plane waves:    4472
 k-point    27 :   0.3333 0.5000 0.0000  plane waves:    4488
 k-point    28 :   0.3462 0.5000 0.0000  plane waves:    4500
 k-point    29 :   0.3590 0.5000 0.0000  plane waves:    4492
 k-point    30 :   0.3718 0.5000 0.0000  plane waves:    4492
 k-point    31 :   0.3846 0.5000 0.0000  plane waves:    4460
 k-point    32 :   0.3974 0.5000 0.0000  plane waves:    4460
 k-point    33 :   0.4103 0.5000 0.0000  plane waves:    4476
 k-point    34 :   0.4231 0.5000 0.0000  plane waves:    4460
 k-point    35 :   0.4359 0.5000 0.0000  plane waves:    4444
 k-point    36 :   0.4487 0.5000 0.0000  plane waves:    4436
 k-point    37 :   0.4615 0.5000 0.0000  plane waves:    4444
 k-point    38 :   0.4744 0.5000 0.0000  plane waves:    4440
 k-point    39 :   0.4872 0.5000 0.0000  plane waves:    4456
 k-point    40 :   0.5000 0.5000 0.0000  plane waves:    4448
 k-point    41 :   0.5000 0.5000 0.0000  plane waves:    4448
 k-point    42 :   0.5000 0.4872 0.0000  plane waves:    4464
 k-point    43 :   0.5000 0.4744 0.0000  plane waves:    4464
 k-point    44 :   0.5000 0.4615 0.0000  plane waves:    4448
 k-point    45 :   0.5000 0.4487 0.0000  plane waves:    4448
 k-point    46 :   0.5000 0.4359 0.0000  plane waves:    4472
 k-point    47 :   0.5000 0.4231 0.0000  plane waves:    4464
 k-point    48 :   0.5000 0.4103 0.0000  plane waves:    4448
 k-point    49 :   0.5000 0.3974 0.0000  plane waves:    4456
 k-point    50 :   0.5000 0.3846 0.0000  plane waves:    4436
 k-point    51 :   0.5000 0.3718 0.0000  plane waves:    4436
 k-point    52 :   0.5000 0.3590 0.0000  plane waves:    4428
 k-point    53 :   0.5000 0.3462 0.0000  plane waves:    4420
 k-point    54 :   0.5000 0.3333 0.0000  plane waves:    4412
 k-point    55 :   0.5000 0.3205 0.0000  plane waves:    4404
 k-point    56 :   0.5000 0.3077 0.0000  plane waves:    4404
 k-point    57 :   0.5000 0.2949 0.0000  plane waves:    4404
 k-point    58 :   0.5000 0.2821 0.0000  plane waves:    4404
 k-point    59 :   0.5000 0.2692 0.0000  plane waves:    4396
 k-point    60 :   0.5000 0.2564 0.0000  plane waves:    4404
 k-point    61 :   0.5000 0.2436 0.0000  plane waves:    4416
 k-point    62 :   0.5000 0.2308 0.0000  plane waves:    4392
 k-point    63 :   0.5000 0.2179 0.0000  plane waves:    4384
 k-point    64 :   0.5000 0.2051 0.0000  plane waves:    4376
 k-point    65 :   0.5000 0.1923 0.0000  plane waves:    4384
 k-point    66 :   0.5000 0.1795 0.0000  plane waves:    4376
 k-point    67 :   0.5000 0.1667 0.0000  plane waves:    4376
 k-point    68 :   0.5000 0.1538 0.0000  plane waves:    4376
 k-point    69 :   0.5000 0.1410 0.0000  plane waves:    4364
 k-point    70 :   0.5000 0.1282 0.0000  plane waves:    4380
 k-point    71 :   0.5000 0.1154 0.0000  plane waves:    4392
 k-point    72 :   0.5000 0.1026 0.0000  plane waves:    4384
 k-point    73 :   0.5000 0.0897 0.0000  plane waves:    4376
 k-point    74 :   0.5000 0.0769 0.0000  plane waves:    4372
 k-point    75 :   0.5000 0.0641 0.0000  plane waves:    4372
 k-point    76 :   0.5000 0.0513 0.0000  plane waves:    4396
 k-point    77 :   0.5000 0.0385 0.0000  plane waves:    4380
 k-point    78 :   0.5000 0.0256 0.0000  plane waves:    4396
 k-point    79 :   0.5000 0.0128 0.0000  plane waves:    4412
 k-point    80 :   0.5000 0.0000 0.0000  plane waves:    4412
 k-point    81 :   0.5000 0.0000 0.0000  plane waves:    4412
 k-point    82 :   0.4872 0.0000 0.0000  plane waves:    4408
 k-point    83 :   0.4744 0.0000 0.0000  plane waves:    4408
 k-point    84 :   0.4615 0.0000 0.0000  plane waves:    4420
 k-point    85 :   0.4487 0.0000 0.0000  plane waves:    4404
 k-point    86 :   0.4359 0.0000 0.0000  plane waves:    4402
 k-point    87 :   0.4231 0.0000 0.0000  plane waves:    4394
 k-point    88 :   0.4103 0.0000 0.0000  plane waves:    4386
 k-point    89 :   0.3974 0.0000 0.0000  plane waves:    4378
 k-point    90 :   0.3846 0.0000 0.0000  plane waves:    4374
 k-point    91 :   0.3718 0.0000 0.0000  plane waves:    4378
 k-point    92 :   0.3590 0.0000 0.0000  plane waves:    4378
 k-point    93 :   0.3462 0.0000 0.0000  plane waves:    4390
 k-point    94 :   0.3333 0.0000 0.0000  plane waves:    4406
 k-point    95 :   0.3205 0.0000 0.0000  plane waves:    4414
 k-point    96 :   0.3077 0.0000 0.0000  plane waves:    4410
 k-point    97 :   0.2949 0.0000 0.0000  plane waves:    4410
 k-point    98 :   0.2821 0.0000 0.0000  plane waves:    4414
 k-point    99 :   0.2692 0.0000 0.0000  plane waves:    4414
 k-point   100 :   0.2564 0.0000 0.0000  plane waves:    4422
 k-point   101 :   0.2436 0.0000 0.0000  plane waves:    4454
 k-point   102 :   0.2308 0.0000 0.0000  plane waves:    4446
 k-point   103 :   0.2179 0.0000 0.0000  plane waves:    4442
 k-point   104 :   0.2051 0.0000 0.0000  plane waves:    4422
 k-point   105 :   0.1923 0.0000 0.0000  plane waves:    4426
 k-point   106 :   0.1795 0.0000 0.0000  plane waves:    4430
 k-point   107 :   0.1667 0.0000 0.0000  plane waves:    4422
 k-point   108 :   0.1538 0.0000 0.0000  plane waves:    4430
 k-point   109 :   0.1410 0.0000 0.0000  plane waves:    4438
 k-point   110 :   0.1282 0.0000 0.0000  plane waves:    4442
 k-point   111 :   0.1154 0.0000 0.0000  plane waves:    4450
 k-point   112 :   0.1026 0.0000 0.0000  plane waves:    4458
 k-point   113 :   0.0897 0.0000 0.0000  plane waves:    4466
 k-point   114 :   0.0769 0.0000 0.0000  plane waves:    4466
 k-point   115 :   0.0641 0.0000 0.0000  plane waves:    4450
 k-point   116 :   0.0513 0.0000 0.0000  plane waves:    4462
 k-point   117 :   0.0385 0.0000 0.0000  plane waves:    4474
 k-point   118 :   0.0256 0.0000 0.0000  plane waves:    4482
 k-point   119 :   0.0128 0.0000 0.0000  plane waves:    4482
 k-point   120 :   0.0000 0.0000 0.0000  plane waves:    4478
 k-point   121 :   0.0000 0.0000 0.0000  plane waves:    4478
 k-point   122 :   0.0000 0.0128 0.0000  plane waves:    4478
 k-point   123 :   0.0000 0.0256 0.0000  plane waves:    4478
 k-point   124 :   0.0000 0.0385 0.0000  plane waves:    4470
 k-point   125 :   0.0000 0.0513 0.0000  plane waves:    4486
 k-point   126 :   0.0000 0.0641 0.0000  plane waves:    4470
 k-point   127 :   0.0000 0.0769 0.0000  plane waves:    4462
 k-point   128 :   0.0000 0.0897 0.0000  plane waves:    4462
 k-point   129 :   0.0000 0.1026 0.0000  plane waves:    4458
 k-point   130 :   0.0000 0.1154 0.0000  plane waves:    4470
 k-point   131 :   0.0000 0.1282 0.0000  plane waves:    4476
 k-point   132 :   0.0000 0.1410 0.0000  plane waves:    4472
 k-point   133 :   0.0000 0.1538 0.0000  plane waves:    4464
 k-point   134 :   0.0000 0.1667 0.0000  plane waves:    4476
 k-point   135 :   0.0000 0.1795 0.0000  plane waves:    4468
 k-point   136 :   0.0000 0.1923 0.0000  plane waves:    4456
 k-point   137 :   0.0000 0.2051 0.0000  plane waves:    4460
 k-point   138 :   0.0000 0.2179 0.0000  plane waves:    4448
 k-point   139 :   0.0000 0.2308 0.0000  plane waves:    4448
 k-point   140 :   0.0000 0.2436 0.0000  plane waves:    4468
 k-point   141 :   0.0000 0.2564 0.0000  plane waves:    4484
 k-point   142 :   0.0000 0.2692 0.0000  plane waves:    4476
 k-point   143 :   0.0000 0.2821 0.0000  plane waves:    4488
 k-point   144 :   0.0000 0.2949 0.0000  plane waves:    4480
 k-point   145 :   0.0000 0.3077 0.0000  plane waves:    4464
 k-point   146 :   0.0000 0.3205 0.0000  plane waves:    4452
 k-point   147 :   0.0000 0.3333 0.0000  plane waves:    4468
 k-point   148 :   0.0000 0.3462 0.0000  plane waves:    4460
 k-point   149 :   0.0000 0.3590 0.0000  plane waves:    4484
 k-point   150 :   0.0000 0.3718 0.0000  plane waves:    4484
 k-point   151 :   0.0000 0.3846 0.0000  plane waves:    4488
 k-point   152 :   0.0000 0.3974 0.0000  plane waves:    4476
 k-point   153 :   0.0000 0.4103 0.0000  plane waves:    4480
 k-point   154 :   0.0000 0.4231 0.0000  plane waves:    4496
 k-point   155 :   0.0000 0.4359 0.0000  plane waves:    4488
 k-point   156 :   0.0000 0.4487 0.0000  plane waves:    4480
 k-point   157 :   0.0000 0.4615 0.0000  plane waves:    4488
 k-point   158 :   0.0000 0.4744 0.0000  plane waves:    4480
 k-point   159 :   0.0000 0.4872 0.0000  plane waves:    4484
 k-point   160 :   0.0000 0.5000 0.0000  plane waves:    4476

 maximum and minimum number of plane-waves per node :      2270     2160

 maximum number of plane-waves:      4500
 maximum index in each direction: 
   IXMAX=    4   IYMAX=    4   IZMAX=   23
   IXMIN=   -5   IYMIN=   -5   IZMIN=  -23


 parallel 3D FFT for wavefunctions:
    minimum data exchange during FFTs selected (reduces bandwidth)
 parallel 3D FFT for charge:
    minimum data exchange during FFTs selected (reduces bandwidth)


 total amount of memory used by VASP MPI-rank0    87485. kBytes
=======================================================================

   base      :      30000. kBytes
   nonl-proj :      19042. kBytes
   fftplans  :       1861. kBytes
   grid      :       6566. kBytes
   one-center:         64. kBytes
   wavefun   :      29952. kBytes
 
     INWAV:  cpu time      0.0000: real time      0.0000
 initial charge density was supplied:
 number of electron      20.0000014 magnetization      -0.0000000     -0.0000000     -0.0000000
 keeping initial charge density in first step


--------------------------------------------------------------------------------------------------------


 Maximum index for augmentation-charges          459 (set IRDMAX)


--------------------------------------------------------------------------------------------------------


 First call to EWALD:  gamma=   0.219
 Maximum number of real-space cells 5x 4x 1
 Maximum number of reciprocal cells 2x 2x 7

    FEWALD:  cpu time      0.0009: real time      0.0009


--------------------------------------- Ionic step        1  -------------------------------------------




--------------------------------------- Iteration      1(   1)  ---------------------------------------


    POTLOK:  cpu time      0.0351: real time      0.0354
    SETDIJ:  cpu time      0.0041: real time      0.0041
     EDDAV:  cpu time      1.7796: real time      1.7866
       DOS:  cpu time      0.0009: real time      0.0010
    --------------------------------------------
      LOOP:  cpu time      1.8198: real time      1.8272

 eigenvalue-minimisations  : 10428
 total energy-change (2. order) : 0.6800435E+02  (-0.3007615E+03)
 number of electron      20.0000014 magnetization      -0.0000000     -0.0000000     -0.0000000
 augmentation part       20.0000014 magnetization      -0.0000000     -0.0000000     -0.0000000

 Free energy of the ion-electron system (eV)
  ---------------------------------------------------
  alpha Z        PSCENC =         1.80044357
  Ewald energy   TEWEN  =      1302.38173519
  -Hartree energ DENC   =     -1814.02784319
  -exchange      EXHF   =         0.00000000
  -V(xc)+E(xc)   XCENC  =      -440.63037537
  PAW double counting   =      1062.11175804     -595.10981230
  entropy T*S    EENTRO =        -0.00022082
  eigenvalues    EBANDS =       -51.76518167
  atomic energy  EATOM  =       603.24384696
  Solvation  Ediel_sol  =         0.00000000
  ---------------------------------------------------
  free energy    TOTEN  =        68.00435041 eV

  energy without entropy =       68.00457123  energy(sigma->0) =       68.00446082


--------------------------------------------------------------------------------------------------------




--------------------------------------- Iteration      1(   2)  ---------------------------------------


     EDDAV:  cpu time      2.3605: real time      2.3701
       DOS:  cpu time      0.0008: real time      0.0008
    --------------------------------------------
      LOOP:  cpu time      2.3613: real time      2.3710

 eigenvalue-minimisations  : 15054
 total energy-change (2. order) :-0.7529161E+02  (-0.7393998E+02)
 number of electron      20.0000014 magnetization      -0.0000000     -0.0000000     -0.0000000
 augmentation part       20.0000014 magnetization      -0.0000000     -0.0000000     -0.0000000

 Free energy of the ion-electron system (eV)
  ---------------------------------------------------
  alpha Z        PSCENC =         1.80044357
  Ewald energy   TEWEN  =      1302.38173519
  -Hartree energ DENC   =     -1814.02784319
  -exchange      EXHF   =         0.00000000
  -V(xc)+E(xc)   XCENC  =      -440.63037537
  PAW double counting   =      1062.11175804     -595.10981230
  entropy T*S    EENTRO =        -0.00003532
  eigenvalues    EBANDS =      -127.05697327
  atomic energy  EATOM  =       603.24384696
  Solvation  Ediel_sol  =         0.00000000
  ---------------------------------------------------
  free energy    TOTEN  =        -7.28725570 eV

  energy without entropy =       -7.28722038  energy(sigma->0) =       -7.28723804


--------------------------------------------------------------------------------------------------------




--------------------------------------- Iteration      1(   3)  ---------------------------------------


     EDDAV:  cpu time      1.9975: real time      2.0059
       DOS:  cpu time      0.0006: real time      0.0006
    --------------------------------------------
      LOOP:  cpu time      1.9981: real time      2.0065

 eigenvalue-minimisations  : 12018
 total energy-change (2. order) :-0.9246798E+01  (-0.9176897E+01)
 number of electron      20.0000014 magnetization      -0.0000000     -0.0000000     -0.0000000
 augmentation part       20.0000014 magnetization      -0.0000000     -0.0000000     -0.0000000

 Free energy of the ion-electron system (eV)
  ---------------------------------------------------
  alpha Z        PSCENC =         1.80044357
  Ewald energy   TEWEN  =      1302.38173519
  -Hartree energ DENC   =     -1814.02784319
  -exchange      EXHF   =         0.00000000
  -V(xc)+E(xc)   XCENC  =      -440.63037537
  PAW double counting   =      1062.11175804     -595.10981230
  entropy T*S    EENTRO =        -0.00000000
  eigenvalues    EBANDS =      -136.30380701
  atomic energy  EATOM  =       603.24384696
  Solvation  Ediel_sol  =         0.00000000
  ---------------------------------------------------
  free energy    TOTEN  =       -16.53405411 eV

  energy without entropy =      -16.53405411  energy(sigma->0) =      -16.53405411


--------------------------------------------------------------------------------------------------------




--------------------------------------- Iteration      1(   4)  ---------------------------------------


     EDDAV:  cpu time      2.9499: real time      2.9607
       DOS:  cpu time      0.0006: real time      0.0006
    --------------------------------------------
      LOOP:  cpu time      2.9505: real time      2.9613

 eigenvalue-minimisations  : 16308
 total energy-change (2. order) :-0.5667872E+00  (-0.5660092E+00)
 number of electron      20.0000014 magnetization      -0.0000000     -0.0000000     -0.0000000
 augmentation part       20.0000014 magnetization      -0.0000000     -0.0000000     -0.0000000

 Free energy of the ion-electron system (eV)
  ---------------------------------------------------
  alpha Z        PSCENC =         1.80044357
  Ewald energy   TEWEN  =      1302.38173519
  -Hartree energ DENC   =     -1814.02784319
  -exchange      EXHF   =         0.00000000
  -V(xc)+E(xc)   XCENC  =      -440.63037537
  PAW double counting   =      1062.11175804     -595.10981230
  entropy T*S    EENTRO =        -0.00000000
  eigenvalues    EBANDS =      -136.87059421
  atomic energy  EATOM  =       603.24384696
  Solvation  Ediel_sol  =         0.00000000
  ---------------------------------------------------
  free energy    TOTEN  =       -17.10084131 eV

  energy without entropy =      -17.10084131  energy(sigma->0) =      -17.10084131


--------------------------------------------------------------------------------------------------------




--------------------------------------- Iteration      1(   5)  ---------------------------------------


     EDDAV:  cpu time      2.4449: real time      2.4539
       DOS:  cpu time      0.0006: real time      0.0006



 total charge

# of ion       s       p       d       tot
------------------------------------------
    1        1.743   1.860   0.060   3.663
    2        1.743   1.860   0.060   3.663
    3        1.736   1.907   0.052   3.695
    4        1.736   1.907   0.052   3.695
--------------------------------------------------
tot          6.959   7.534   0.223  14.715



 magnetization (x)

# of ion       s       p       d       tot
------------------------------------------
    1        0.001   0.004  -0.000   0.004
    2       -0.001  -0.004   0.000  -0.004
    3        0.001  -0.001  -0.000   0.000
    4       -0.001   0.001   0.000  -0.001
--------------------------------------------------
tot         -0.000   0.000   0.000  -0.000



 magnetization (y)

# of ion       s       p       d       tot
------------------------------------------
    1        0.000  -0.002   0.000  -0.001
    2       -0.000   0.002  -0.000   0.001
    3       -0.002  -0.001   0.000  -0.002
    4        0.002   0.001  -0.000   0.002
--------------------------------------------------
tot          0.000  -0.000  -0.000   0.000



 magnetization (z)

# of ion       s       p       d       tot
------------------------------------------
    1       -0.002   0.013  -0.001   0.010
    2       -0.002   0.013  -0.001   0.010
    3        0.002  -0.013   0.001  -0.010
    4        0.002  -0.013   0.001  -0.010
--------------------------------------------------
tot         -0.001   0.001   0.001   0.000
 
    --------------------------------------------
      LOOP:  cpu time      2.4485: real time      2.4575

 eigenvalue-minimisations  : 13224
 total energy-change (2. order) :-0.3671245E-02  (-0.3669904E-02)
 number of electron      20.0000014 magnetization      -0.0000000     -0.0000000     -0.0000000
 augmentation part       20.0000014 magnetization      -0.0000000     -0.0000000     -0.0000000

 Free energy of the ion-electron system (eV)
  ---------------------------------------------------
  alpha Z        PSCENC =         1.80044357
  Ewald energy   TEWEN  =      1302.38173519
  -Hartree energ DENC   =     -1814.02784319
  -exchange      EXHF   =         0.00000000
  -V(xc)+E(xc)   XCENC  =      -440.63037537
  PAW double counting   =      1062.11175804     -595.10981230
  entropy T*S    EENTRO =        -0.00000000
  eigenvalues    EBANDS =      -136.87426545
  atomic energy  EATOM  =       603.24384696
  Solvation  Ediel_sol  =         0.00000000
  ---------------------------------------------------
  free energy    TOTEN  =       -17.10451255 eV

  energy without entropy =      -17.10451255  energy(sigma->0) =      -17.10451255


--------------------------------------------------------------------------------------------------------




--------------------------------------- Iteration      1(   6)  ---------------------------------------


     EDDAV:  cpu time      2.8114: real time      2.8216
       DOS:  cpu time      0.0006: real time      0.0007
    --------------------------------------------
      LOOP:  cpu time      2.8091: real time      2.8193

 eigenvalue-minimisations  : 15696
 total energy-change (2. order) :-0.9680605E-04  (-0.9679992E-04)
 number of electron      20.0000014 magnetization      -0.0000000     -0.0000000     -0.0000000
 augmentation part       20.0000014 magnetization      -0.0000000     -0.0000000     -0.0000000

 Free energy of the ion-electron system (eV)
  ---------------------------------------------------
  alpha Z        PSCENC =         1.80044357
  Ewald energy   TEWEN  =      1302.38173519
  -Hartree energ DENC   =     -1814.02784319
  -exchange      EXHF   =         0.00000000
  -V(xc)+E(xc)   XCENC  =      -440.63037537
  PAW double counting   =      1062.11175804     -595.10981230
  entropy T*S    EENTRO =        -0.00000000
  eigenvalues    EBANDS =      -136.87436226
  atomic energy  EATOM  =       603.24384696
  Solvation  Ediel_sol  =         0.00000000
  ---------------------------------------------------
  free energy    TOTEN  =       -17.10460936 eV

  energy without entropy =      -17.10460936  energy(sigma->0) =      -17.10460936


--------------------------------------------------------------------------------------------------------




--------------------------------------- Iteration      1(   7)  ---------------------------------------


     EDDAV:  cpu time      2.5710: real time      2.5805
       DOS:  cpu time      0.0006: real time      0.0006
    --------------------------------------------
      LOOP:  cpu time      2.5716: real time      2.5811

 eigenvalue-minimisations  : 13884
 total energy-change (2. order) :-0.1198464E-05  (-0.1198449E-05)
 number of electron      20.0000014 magnetization      -0.0000000     -0.0000000     -0.0000000
 augmentation part       20.0000014 magnetization      -0.0000000     -0.0000000     -0.0000000

 Free energy of the ion-electron system (eV)
  ---------------------------------------------------
  alpha Z        PSCENC =         1.80044357
  Ewald energy   TEWEN  =      1302.38173519
  -Hartree energ DENC   =     -1814.02784319
  -exchange      EXHF   =         0.00000000
  -V(xc)+E(xc)   XCENC  =      -440.63037537
  PAW double counting   =      1062.11175804     -595.10981230
  entropy T*S    EENTRO =        -0.00000000
  eigenvalues    EBANDS =      -136.87436346
  atomic energy  EATOM  =       603.24384696
  Solvation  Ediel_sol  =         0.00000000
  ---------------------------------------------------
  free energy    TOTEN  =       -17.10461056 eV

  energy without entropy =      -17.10461056  energy(sigma->0) =      -17.10461056


--------------------------------------------------------------------------------------------------------




--------------------------------------- Iteration      1(   8)  ---------------------------------------


     EDDAV:  cpu time      2.2680: real time      2.2769
       DOS:  cpu time      0.0006: real time      0.0006
    --------------------------------------------
      LOOP:  cpu time      2.2686: real time      2.2775

 eigenvalue-minimisations  : 12522
 total energy-change (2. order) :-0.3009245E-07  (-0.3007826E-07)
 number of electron      20.0000014 magnetization      -0.0000000     -0.0000000     -0.0000000
 augmentation part       20.0000014 magnetization      -0.0000000     -0.0000000     -0.0000000

 Free energy of the ion-electron system (eV)
  ---------------------------------------------------
  alpha Z        PSCENC =         1.80044357
  Ewald energy   TEWEN  =      1302.38173519
  -Hartree energ DENC   =     -1814.02784319
  -exchange      EXHF   =         0.00000000
  -V(xc)+E(xc)   XCENC  =      -440.63037537
  PAW double counting   =      1062.11175804     -595.10981230
  entropy T*S    EENTRO =        -0.00000000
  eigenvalues    EBANDS =      -136.87436349
  atomic energy  EATOM  =       603.24384696
  Solvation  Ediel_sol  =         0.00000000
  ---------------------------------------------------
  free energy    TOTEN  =       -17.10461059 eV

  energy without entropy =      -17.10461059  energy(sigma->0) =      -17.10461059


--------------------------------------------------------------------------------------------------------




 average (electrostatic) potential at core
  the test charge radii are     1.4024
  (the norm of the test charge is              1.0000)
       1 -68.1833       2 -68.1833       3 -68.1026       4 -68.1026
 
 
 
 E-fermi :  -1.4578     XC(G=0):  -3.0438     alpha+bet : -2.6509

 val. band max:       -1.5170189057   @ k =   0.0000   0.3333   0.0000
 cond. band min:      -1.2512768281   @ k =   0.2051   0.0000   0.0000
 fundamental gap:      0.2657420776
 Fermi energy:        -1.4577927529

 k-point     1 :       0.0000    0.5000    0.0000
  band No.  band energies     occupation 
[...]
  0.004  -0.000   0.004  -0.000  -0.009  -0.000   0.012   0.000   0.000   0.000  -0.008  -0.000   0.011   0.000   0.000   0.000
  0.004   0.000   0.005   0.000  -0.007  -0.000  -0.008  -0.000   0.000  -0.000  -0.006  -0.000  -0.007  -0.000   0.000  -0.000
  0.000  -0.000   0.000  -0.000   0.000   0.000  -0.000   0.000  -0.009  -0.000   0.000   0.000  -0.000   0.000  -0.008  -0.000
  0.002  -0.000   0.002  -0.000  -0.013  -0.000   0.000   0.000  -0.000   0.000  -0.011  -0.000   0.000   0.000  -0.000   0.000
 total augmentation occupancy for first ion, spin component:           1
  2.000   0.000   0.000   0.000   0.000   0.000   0.000   0.000   0.000   0.000   0.000   0.000   0.000
  0.000   0.000   0.000   0.000   0.000   0.000   0.000   0.000   0.000   0.000   0.000   0.000   0.000
  0.000   0.000   1.000   0.000   0.000   0.000   0.000   0.000   0.000   0.000   0.000   0.000   0.000
  0.000   0.000   0.000   1.000   0.000   0.000   0.000   0.000   0.000   0.000   0.000   0.000   0.000
  0.000   0.000   0.000   0.000   1.000   0.000   0.000   0.000   0.000   0.000   0.000   0.000   0.000
  0.000   0.000   0.000   0.000   0.000   0.000   0.000   0.000   0.000   0.000   0.000   0.000   0.000
  0.000   0.000   0.000   0.000   0.000   0.000   0.000   0.000   0.000   0.000   0.000   0.000   0.000
  0.000   0.000   0.000   0.000   0.000   0.000   0.000   0.000   0.000   0.000   0.000   0.000   0.000
  0.000   0.000   0.000   0.000   0.000   0.000   0.000   0.000   0.000   0.000   0.000   0.000   0.000
  0.000   0.000   0.000   0.000   0.000   0.000   0.000   0.000   0.000   0.000   0.000   0.000   0.000
  0.000   0.000   0.000   0.000   0.000   0.000   0.000   0.000   0.000   0.000   0.000   0.000   0.000
  0.000   0.000   0.000   0.000   0.000   0.000   0.000   0.000   0.000   0.000   0.000   0.000   0.000
  0.000   0.000   0.000   0.000   0.000   0.000   0.000   0.000   0.000   0.000   0.000   0.000   0.000
 total augmentation occupancy for first ion, spin component:           2
  0.000   0.000   0.000   0.000   0.000   0.000   0.000   0.000   0.000   0.000   0.000   0.000   0.000
  0.000   0.000   0.000   0.000   0.000   0.000   0.000   0.000   0.000   0.000   0.000   0.000   0.000
  0.000   0.000   0.000   0.000   0.000   0.000   0.000   0.000   0.000   0.000   0.000   0.000   0.000
  0.000   0.000   0.000   0.000   0.000   0.000   0.000   0.000   0.000   0.000   0.000   0.000   0.000
  0.000   0.000   0.000   0.000   0.000   0.000   0.000   0.000   0.000   0.000   0.000   0.000   0.000
  0.000   0.000   0.000   0.000   0.000   0.000   0.000   0.000   0.000   0.000   0.000   0.000   0.000
  0.000   0.000   0.000   0.000   0.000   0.000   0.000   0.000   0.000   0.000   0.000   0.000   0.000
  0.000   0.000   0.000   0.000   0.000   0.000   0.000   0.000   0.000   0.000   0.000   0.000   0.000
  0.000   0.000   0.000   0.000   0.000   0.000   0.000   0.000   0.000   0.000   0.000   0.000   0.000
  0.000   0.000   0.000   0.000   0.000   0.000   0.000   0.000   0.000   0.000   0.000   0.000   0.000
  0.000   0.000   0.000   0.000   0.000   0.000   0.000   0.000   0.000   0.000   0.000   0.000   0.000
  0.000   0.000   0.000   0.000   0.000   0.000   0.000   0.000   0.000   0.000   0.000   0.000   0.000
  0.000   0.000   0.000   0.000   0.000   0.000   0.000   0.000   0.000   0.000   0.000   0.000   0.000
 total augmentation occupancy for first ion, spin component:           3
  0.000   0.000   0.000   0.000   0.000   0.000   0.000   0.000   0.000   0.000   0.000   0.000   0.000
  0.000   0.000   0.000   0.000   0.000   0.000   0.000   0.000   0.000   0.000   0.000   0.000   0.000
  0.000   0.000   0.000   0.000   0.000   0.000   0.000   0.000   0.000   0.000   0.000   0.000   0.000
  0.000   0.000   0.000   0.000   0.000   0.000   0.000   0.000   0.000   0.000   0.000   0.000   0.000
  0.000   0.000   0.000   0.000   0.000   0.000   0.000   0.000   0.000   0.000   0.000   0.000   0.000
  0.000   0.000   0.000   0.000   0.000   0.000   0.000   0.000   0.000   0.000   0.000   0.000   0.000
  0.000   0.000   0.000   0.000   0.000   0.000   0.000   0.000   0.000   0.000   0.000   0.000   0.000
  0.000   0.000   0.000   0.000   0.000   0.000   0.000   0.000   0.000   0.000   0.000   0.000   0.000
  0.000   0.000   0.000   0.000   0.000   0.000   0.000   0.000   0.000   0.000   0.000   0.000   0.000
  0.000   0.000   0.000   0.000   0.000   0.000   0.000   0.000   0.000   0.000   0.000   0.000   0.000
  0.000   0.000   0.000   0.000   0.000   0.000   0.000   0.000   0.000   0.000   0.000   0.000   0.000
  0.000   0.000   0.000   0.000   0.000   0.000   0.000   0.000   0.000   0.000   0.000   0.000   0.000
  0.000   0.000   0.000   0.000   0.000   0.000   0.000   0.000   0.000   0.000   0.000   0.000   0.000
 total augmentation occupancy for first ion, spin component:           4
  0.000   0.000   0.000   0.000   0.000   0.000   0.000   0.000   0.000   0.000   0.000   0.000   0.000
  0.000   0.000   0.000   0.000   0.000   0.000   0.000   0.000   0.000   0.000   0.000   0.000   0.000
  0.000   0.000   0.000   0.000   0.000   0.000   0.000   0.000   0.000   0.000   0.000   0.000   0.000
  0.000   0.000   0.000   0.000   0.000   0.000   0.000   0.000   0.000   0.000   0.000   0.000   0.000
  0.000   0.000   0.000   0.000   0.000   0.000   0.000   0.000   0.000   0.000   0.000   0.000   0.000
  0.000   0.000   0.000   0.000   0.000   0.000   0.000   0.000   0.000   0.000   0.000   0.000   0.000
  0.000   0.000   0.000   0.000   0.000   0.000   0.000   0.000   0.000   0.000   0.000   0.000   0.000
  0.000   0.000   0.000   0.000   0.000   0.000   0.000   0.000   0.000   0.000   0.000   0.000   0.000
  0.000   0.000   0.000   0.000   0.000   0.000   0.000   0.000   0.000   0.000   0.000   0.000   0.000
  0.000   0.000   0.000   0.000   0.000   0.000   0.000   0.000   0.000   0.000   0.000   0.000   0.000
  0.000   0.000   0.000   0.000   0.000   0.000   0.000   0.000   0.000   0.000   0.000   0.000   0.000
  0.000   0.000   0.000   0.000   0.000   0.000   0.000   0.000   0.000   0.000   0.000   0.000   0.000
  0.000   0.000   0.000   0.000   0.000   0.000   0.000   0.000   0.000   0.000   0.000   0.000   0.000


------------------------ aborting loop because EDIFF is reached ----------------------------------------





 total charge

# of ion       s       p       d       tot
------------------------------------------
    1        1.742   1.860   0.060   3.661
    2        1.742   1.860   0.060   3.661
    3        1.735   1.907   0.052   3.694
    4        1.735   1.907   0.052   3.694
--------------------------------------------------
tot          6.953   7.534   0.223  14.709



 magnetization (x)

# of ion       s       p       d       tot
------------------------------------------
    1        0.001   0.004  -0.000   0.004
    2       -0.001  -0.004   0.000  -0.004
    3        0.001  -0.001  -0.000   0.001
    4       -0.001   0.001   0.000  -0.001
--------------------------------------------------
tot          0.000   0.000  -0.000  -0.000



 magnetization (y)

# of ion       s       p       d       tot
------------------------------------------
    1        0.000   0.000   0.000   0.000
    2        0.000   0.000   0.000   0.000
    3        0.000   0.000   0.000   0.000
    4        0.000   0.000   0.000   0.000
--------------------------------------------------
tot          0.000   0.000   0.000   0.000



 magnetization (z)

# of ion       s       p       d       tot
------------------------------------------
    1        0.000   0.000   0.000   0.000
    2        0.000   0.000   0.000   0.000
    3        0.000   0.000   0.000   0.000
    4        0.000   0.000   0.000   0.000
--------------------------------------------------
tot          0.000   0.000   0.000   0.000
 
    CHARGE:  cpu time      0.1158: real time      0.1162
    FORLOC:  cpu time      0.0007: real time      0.0007
    FORNL :  cpu time      0.1581: real time      0.1586
    STRESS:  cpu time      0.7258: real time      0.7303
    FORCOR:  cpu time      0.0290: real time      0.0292
    FORHAR:  cpu time      0.0028: real time      0.0029
    OFIELD:  cpu time      0.0003: real time      0.0003

  FORCE on cell =-STRESS in cart. coord.  units (eV):
  Direction    XX          YY          ZZ          XY          YZ          ZX
  --------------------------------------------------------------------------------------
  Alpha Z     1.80044     1.80044     1.80044
  Ewald    1712.97233  1704.43319 -2115.02388    -0.00000    -0.00000     0.00000
  Hartree  1795.25270  1791.83805 -1773.73792    -0.00000    -0.00000    -0.00000
  E(xc)     -91.24960   -91.17568   -91.69147    -0.00000    -0.00000    -0.00000
  Local   -3774.00909 -3762.41629  3623.62036    -0.00000    -0.00000    -0.00000
  n-local   303.92494   303.59412   303.56765     0.00000    -0.00000     0.00000
  augment  -107.63506  -107.67732  -107.91970     0.00000    -0.00000     0.00000
  Kinetic   160.04610   159.32120   159.39438     0.00000    -0.00000     0.00000
  Fock        0.00000     0.00000     0.00000     0.00000     0.00000     0.00000
  -------------------------------------------------------------------------------------
  Total       1.10278    -0.28228     0.00986     0.00000     0.00000     0.00000
  in kB       3.31432    -0.84838     0.02962     0.00000     0.00000     0.00000
  external pressure =        0.83 kB  Pullay stress =        0.00 kB


 VOLUME and BASIS-vectors are now :
 -----------------------------------------------------------------------------
  energy-cutoff  :      150.00
  volume of cell :      533.10
      direct lattice vectors                 reciprocal lattice vectors
     4.560000000  0.000000000  0.000000000     0.219298246  0.000000000  0.000000000
     0.000000000  4.890000000  0.000000000     0.000000000  0.204498978  0.000000000
     0.000000000  0.000000000 23.907353893     0.000000000  0.000000000  0.041828134

  length of vectors
     4.560000000  4.890000000 23.907353893     0.219298246  0.204498978  0.041828134


 FORCES acting on ions
    electron-ion (+dipol)            ewald-force                    non-local-force                 convergence-correction
 -----------------------------------------------------------------------------------------------
   0.593E-15 0.719E+01 -.127E+03   0.151E-14 -.847E+01 0.129E+03   0.193E-22 0.159E+01 -.206E+01   -.553E-15 -.169E+00 -.463E-01
   0.194E-14 0.719E+01 0.127E+03   0.285E-14 -.847E+01 -.129E+03   0.941E-23 0.159E+01 0.206E+01   -.944E-15 -.169E+00 0.463E-01
   0.402E-14 -.775E+01 -.171E+03   -.731E-15 0.847E+01 0.175E+03   0.283E-23 -.104E+01 -.306E+01   0.581E-15 0.178E+00 -.425E-01
   0.125E-15 -.775E+01 0.171E+03   -.160E-14 0.847E+01 -.175E+03   0.201E-24 -.104E+01 0.306E+01   0.803E-15 0.178E+00 0.425E-01
 -----------------------------------------------------------------------------------------------
   0.668E-14 -.112E+01 0.642E-12   0.202E-14 0.000E+00 -.284E-13   0.317E-22 0.111E+01 0.000E+00   -.113E-15 0.166E-01 -.166E-11
 
 
 POSITION                                       TOTAL-FORCE (eV/Angst)
 -----------------------------------------------------------------------------------
      0.00000      0.00096      1.29078        -0.000000      0.142051      0.080006
      2.28000      2.44596     22.61657        -0.000000      0.142051     -0.080006
      2.28000      2.07142      1.77755         0.000000     -0.142051     -0.048290
      0.00000      4.51642     22.12981         0.000000     -0.142051      0.048290
 -----------------------------------------------------------------------------------
    total drift:                                0.000000     -0.001298     -0.000000


--------------------------------------------------------------------------------------------------------



  FREE ENERGIE OF THE ION-ELECTRON SYSTEM (eV)
  ---------------------------------------------------
  free  energy   TOTEN  =       -17.10461059 eV

  energy  without entropy=      -17.10461059  energy(sigma->0) =      -17.10461059
 


--------------------------------------------------------------------------------------------------------


    POTLOK:  cpu time      0.0367: real time      0.0369


--------------------------------------------------------------------------------------------------------


     LOOP+:  cpu time     20.3178: real time     20.3995
    4ORBIT:  cpu time      0.0000: real time      0.0000

 Spin-Orbit-Coupling matrix elements

 Ion:    1  E_soc:     -1.1998862
 l=   1
     0.0000000    -0.1934177    -0.2066570
    -0.1934177     0.0000000    -0.1982832
    -0.2066570    -0.1982832     0.0000000
 l=   2
     0.0000000    -0.0001793     0.0000000    -0.0001549    -0.0002750
    -0.0001793     0.0000000    -0.0003953    -0.0000892    -0.0000896
     0.0000000    -0.0003953     0.0000000    -0.0003255     0.0000000
    -0.0001549    -0.0000892    -0.0003255     0.0000000    -0.0000763
    -0.0002750    -0.0000896     0.0000000    -0.0000763     0.0000000
 l=   3
     0.0000000     0.0000000     0.0000000     0.0000000     0.0000000     0.0000000     0.0000000
     0.0000000     0.0000000     0.0000000     0.0000000     0.0000000     0.0000000     0.0000000
     0.0000000     0.0000000     0.0000000     0.0000000     0.0000000     0.0000000     0.0000000
     0.0000000     0.0000000     0.0000000     0.0000000     0.0000000     0.0000000     0.0000000
     0.0000000     0.0000000     0.0000000     0.0000000     0.0000000     0.0000000     0.0000000
     0.0000000     0.0000000     0.0000000     0.0000000     0.0000000     0.0000000     0.0000000
     0.0000000     0.0000000     0.0000000     0.0000000     0.0000000     0.0000000     0.0000000

 Ion:    2  E_soc:     -1.1998862
 l=   1
     0.0000000    -0.1934177    -0.2066570
    -0.1934177     0.0000000    -0.1982832
    -0.2066570    -0.1982832     0.0000000
 l=   2
     0.0000000    -0.0001793     0.0000000    -0.0001549    -0.0002750
    -0.0001793     0.0000000    -0.0003953    -0.0000892    -0.0000896
     0.0000000    -0.0003953     0.0000000    -0.0003255     0.0000000
    -0.0001549    -0.0000892    -0.0003255     0.0000000    -0.0000763
    -0.0002750    -0.0000896     0.0000000    -0.0000763     0.0000000
 l=   3
     0.0000000     0.0000000     0.0000000     0.0000000     0.0000000     0.0000000     0.0000000
     0.0000000     0.0000000     0.0000000     0.0000000     0.0000000     0.0000000     0.0000000
     0.0000000     0.0000000     0.0000000     0.0000000     0.0000000     0.0000000     0.0000000
     0.0000000     0.0000000     0.0000000     0.0000000     0.0000000     0.0000000     0.0000000
     0.0000000     0.0000000     0.0000000     0.0000000     0.0000000     0.0000000     0.0000000
     0.0000000     0.0000000     0.0000000     0.0000000     0.0000000     0.0000000     0.0000000
     0.0000000     0.0000000     0.0000000     0.0000000     0.0000000     0.0000000     0.0000000

 Ion:    3  E_soc:     -1.1788483
 l=   1
     0.0000000    -0.1948285    -0.1947043
    -0.1948285     0.0000000    -0.1996267
    -0.1947043    -0.1996267     0.0000000
 l=   2
     0.0000000    -0.0000336     0.0000000    -0.0000197    -0.0000709
    -0.0000336     0.0000000     0.0000116    -0.0000045    -0.0000974
     0.0000000     0.0000116     0.0000000     0.0000145     0.0000000
    -0.0000197    -0.0000045     0.0000145     0.0000000    -0.0000646
    -0.0000709    -0.0000974     0.0000000    -0.0000646     0.0000000
 l=   3
     0.0000000     0.0000000     0.0000000     0.0000000     0.0000000     0.0000000     0.0000000
     0.0000000     0.0000000     0.0000000     0.0000000     0.0000000     0.0000000     0.0000000
     0.0000000     0.0000000     0.0000000     0.0000000     0.0000000     0.0000000     0.0000000
     0.0000000     0.0000000     0.0000000     0.0000000     0.0000000     0.0000000     0.0000000
     0.0000000     0.0000000     0.0000000     0.0000000     0.0000000     0.0000000     0.0000000
     0.0000000     0.0000000     0.0000000     0.0000000     0.0000000     0.0000000     0.0000000
     0.0000000     0.0000000     0.0000000     0.0000000     0.0000000     0.0000000     0.0000000

 Ion:    4  E_soc:     -1.1788483
 l=   1
     0.0000000    -0.1948285    -0.1947043
    -0.1948285     0.0000000    -0.1996267
    -0.1947043    -0.1996267     0.0000000
 l=   2
     0.0000000    -0.0000336     0.0000000    -0.0000197    -0.0000709
    -0.0000336     0.0000000     0.0000116    -0.0000045    -0.0000974
     0.0000000     0.0000116     0.0000000     0.0000145     0.0000000
    -0.0000197    -0.0000045     0.0000145     0.0000000    -0.0000646
    -0.0000709    -0.0000974     0.0000000    -0.0000646     0.0000000
 l=   3
     0.0000000     0.0000000     0.0000000     0.0000000     0.0000000     0.0000000     0.0000000
     0.0000000     0.0000000     0.0000000     0.0000000     0.0000000     0.0000000     0.0000000
     0.0000000     0.0000000     0.0000000     0.0000000     0.0000000     0.0000000     0.0000000
     0.0000000     0.0000000     0.0000000     0.0000000     0.0000000     0.0000000     0.0000000
     0.0000000     0.0000000     0.0000000     0.0000000     0.0000000     0.0000000     0.0000000
     0.0000000     0.0000000     0.0000000     0.0000000     0.0000000     0.0000000     0.0000000
     0.0000000     0.0000000     0.0000000     0.0000000     0.0000000     0.0000000     0.0000000



 total charge

# of ion       s       p       d       tot
------------------------------------------
    1        1.742   1.860   0.060   3.661
    2        1.742   1.860   0.060   3.661
    3        1.735   1.907   0.052   3.694
    4        1.735   1.907   0.052   3.694
--------------------------------------------------
tot          6.953   7.534   0.223  14.709



 magnetization (x)

# of ion       s       p       d       tot
------------------------------------------
    1        0.001   0.004  -0.000   0.004
    2       -0.001  -0.004   0.000  -0.004
    3        0.001  -0.001  -0.000   0.001
    4       -0.001   0.001   0.000  -0.001
--------------------------------------------------
tot          0.000   0.000  -0.000  -0.000



 magnetization (y)

# of ion       s       p       d       tot
------------------------------------------
    1        0.000   0.000   0.000   0.000
    2        0.000   0.000   0.000   0.000
    3        0.000   0.000   0.000   0.000
    4        0.000   0.000   0.000   0.000
--------------------------------------------------
tot          0.000   0.000   0.000   0.000



 magnetization (z)

# of ion       s       p       d       tot
------------------------------------------
    1        0.000   0.000   0.000   0.000
    2        0.000   0.000   0.000   0.000
    3        0.000   0.000   0.000   0.000
    4        0.000   0.000   0.000   0.000
--------------------------------------------------
tot          0.000   0.000   0.000   0.000
 

 total amount of memory used by VASP MPI-rank0    87485. kBytes
=======================================================================

   base      :      30000. kBytes
   nonl-proj :      19042. kBytes
   fftplans  :       1861. kBytes
   grid      :       6566. kBytes
   one-center:         64. kBytes
   wavefun   :      29952. kBytes
 
  
  
 General timing and accounting informations for this job:
 ========================================================
  
                  Total CPU time used (sec):       23.312
                            User time (sec):       22.372
                          System time (sec):        0.940
                         Elapsed time (sec):       24.052
  
                   Maximum memory used (kb):      392116.
                   Average memory used (kb):          N/A
  
                          Minor page faults:        60111
                          Major page faults:            0
                 Voluntary context switches:         2990
